dump                1 all custom 200000 dump.${myid} x y z type id c_ppa c_kpa #every 200 ps
dump                1 all custom 200000 dump.Tg_CTE_rep_1_mech_hrate_50_temps_100-770 x y z type id c_ppa c_kpa 
thermo_style        custom step temp press etotal ke pe ebond eangle edihed evdwl eimp elong density lx ly lz vol v_Time

#-------reset atom ids---------
reset_atom_ids      sort yes
Resetting atom IDs ...
PPPM initialization ...
  using 12-bit tables for long-range coulomb (../kspace.cpp:340)
  G vector (1/distance) = 0.37705988
  grid = 60 60 60
  stencil order = 5
  estimated absolute RMS force accuracy = 0.00031885204
  estimated relative force accuracy = 9.6021346e-07
  using double precision KISS FFT
  3d grid and FFT values/proc = 17908 7200
Neighbor list info ...
  update every 1 steps, delay 0 steps, check yes
  max neighbors/atom: 5000, page size: 100000
  master list distance cutoff = 14
  ghost atom cutoff = 14
  binsize = 7, bins = 9 9 9
  1 neighbor lists, perpetual/occasional/extra = 1 0 0
  (1) pair lj/class2/coul/long, perpetual
      attributes: half, newton on
      pair build: half/bin/newton
      stencil: half/bin/3d
      bin: standard
Finding 1-2 1-3 1-4 neighbors ...
  special bond factors lj:    0        0        1       
  special bond factors coul:  0        0        1       
     3 = max # of 1-2 neighbors
     6 = max # of 1-3 neighbors
     9 = max # of special neighbors
  special bonds CPU = 0.001 seconds

#--------minimize--------------

fix                 5 all box/relax x 0 y 0 z 0
minimize            1.0e-8 1.0e-8 100000 100000
PPPM initialization ...
  using 12-bit tables for long-range coulomb (../kspace.cpp:340)
  G vector (1/distance) = 0.37705988
  grid = 60 60 60
  stencil order = 5
  estimated absolute RMS force accuracy = 0.00031885204
  estimated relative force accuracy = 9.6021346e-07
  using double precision KISS FFT
  3d grid and FFT values/proc = 17908 7200
WARNING: Inconsistent image flags (../domain.cpp:814)
Per MPI rank memory allocation (min/avg/max) = 17.98 | 18.02 | 18.03 Mbytes
Step Temp Press TotEng KinEng PotEng E_bond E_angle E_dihed E_vdwl E_impro E_long Density Lx Ly Lz Volume v_Time 
       0    299.43313   -924.09045    98294.865    15055.589    83239.277     12964.41    15145.914    29565.593    3374.8079    1160.7888   -33535.764    1.2477329    58.395959    56.872401    57.930938     192395.5            0 
    1000    299.43313    3294.9476    93851.339    15055.589    78795.751    9894.7059    14544.101    28829.101    3492.1998    979.78116    -33543.96     1.252696    58.306547    56.819105     57.84411    191633.24            1 
    2000    299.43313    3311.8909     91737.02    15055.589    76681.432    8730.9506    14066.641     28590.67    3417.7928     817.4913    -33547.05    1.2530265     58.29867    56.815084    57.840757    191582.69            2 
    3000    299.43313    3379.5633    90297.961    15055.589    75242.372    8188.3103    13638.838    28350.371    3341.8763    665.73236   -33549.486    1.2530893     58.29502    56.814564    57.842012     191573.1            3 
    4000    299.43313    3666.3333    87916.692    15055.589    72861.103    7704.9031    12802.244    27722.197    3175.1813    407.67094   -33554.064    1.2529752    58.292876    56.816583    57.847351    191590.55            4 
    4116    299.43313    3768.5579    87806.511    15055.589    72750.923    7694.3542    12762.113    27678.768    3169.8989    397.14478   -33554.368    1.2530546    58.286338    56.820012    57.846681     191578.4        4.116 
Loop time of 61.2303 on 32 procs for 4116 steps with 16869 atoms

98.0% CPU use with 32 MPI tasks x no OpenMP threads

Minimization stats:
  Stopping criterion = energy tolerance
  Energy initial, next-to-last, final = 
      83239.2768703449   72750.9228836521   72750.9225140933
  Force two-norm initial, final = 22476.913 1218.6262
  Force max component initial, final = 13360.319 710.61003
  Final line search alpha, max atom move = 2.7410844e-10 1.9478420e-07
  Iterations, force evaluations = 4116 4138

MPI task timing breakdown:
Section |  min time  |  avg time  |  max time  |%varavg| %total
---------------------------------------------------------------
Pair    | 25.034     | 27.333     | 29.435     |  16.6 | 44.64
Bond    | 5.9177     | 6.2588     | 6.7897     |   6.9 | 10.22
Kspace  | 10.623     | 13.247     | 15.887     |  27.8 | 21.63
Neigh   | 0          | 0          | 0          |   0.0 |  0.00
Comm    | 0.87233    | 0.89788    | 0.91252    |   1.2 |  1.47
Output  | 0.00039887 | 0.00042365 | 0.00050282 |   0.0 |  0.00
Modify  | 0          | 0          | 0          |   0.0 |  0.00
Other   |            | 13.49      |            |       | 22.04

Nlocal:        527.156 ave         566 max         501 min
Histogram: 2 1 5 10 4 7 1 1 0 1
Nghost:        8404.31 ave        8524 max        8327 min
Histogram: 4 3 7 3 6 4 1 2 0 2
Neighs:        265425.0 ave      285337 max      244082 min
Histogram: 1 0 2 4 8 7 5 3 1 1

Total # of neighbors = 8493600
Ave neighs/atom = 503.50347
Ave special neighs/atom = 5.6421839
Neighbor list builds = 0
Dangerous builds = 0
unfix               5

#------room temp stabilization-----

velocity            all create 300 875321
fix                 1 all npt temp 300 300 100 x 1 1 1000 y 1 1 1000 z 1 1 1000
restart             10000 rst1.a.${myid} rst2.a.${myid} # every 10ps
restart             10000 rst1.a.Tg_CTE_rep_1_mech_hrate_50_temps_100-770 rst2.a.${myid} 
restart             10000 rst1.a.Tg_CTE_rep_1_mech_hrate_50_temps_100-770 rst2.a.Tg_CTE_rep_1_mech_hrate_50_temps_100-770 
run                 100000 # 100 ps
PPPM initialization ...
  using 12-bit tables for long-range coulomb (../kspace.cpp:340)
  G vector (1/distance) = 0.37719424
  grid = 60 60 60
  stencil order = 5
  estimated absolute RMS force accuracy = 0.00031745871
  estimated relative force accuracy = 9.5601747e-07
  using double precision KISS FFT
  3d grid and FFT values/proc = 17908 7200
WARNING: Inconsistent image flags (../domain.cpp:814)
Per MPI rank memory allocation (min/avg/max) = 16.85 | 16.90 | 17.28 Mbytes
Step Temp Press TotEng KinEng PotEng E_bond E_angle E_dihed E_vdwl E_impro E_long Density Lx Ly Lz Volume v_Time 
    4116          300    3775.3595    87835.014    15084.091    72750.923    7694.3542    12762.113    27678.768    3169.8989    397.14478   -33565.151    1.2530546    58.286338    56.820012    57.846681     191578.4        4.116 
    5000    306.56143    487.01315    99234.908    15414.002    83820.906    12421.655    15360.238     30019.37     3715.473    1209.5778   -33539.264    1.2381844    58.461362    57.197679    57.980757     193879.2            5 
    6000    296.83861    864.78212    98241.524    14925.135    83316.389    12395.693    15236.737    29643.184    3782.7352    1171.1178   -33539.183    1.2419818    58.263438     57.34583    57.849999     193286.4            6 
    7000    303.18139    376.32405    98808.086    15244.052    83564.034    12630.443    15169.509    29859.784    3653.5792    1163.0254   -33524.471     1.245686    58.173458    57.145095    57.970107    192711.64            7 
    8000    297.76936    985.86575    98597.518    14971.934    83625.583    12663.319    15311.216    29732.653    3671.7755    1185.1255   -33542.847    1.2462332    58.250213    57.267784    57.744326    192627.02            8 
    9000    296.67949    332.14925    98268.063    14917.135    83350.928    12564.536    15119.285    29782.162    3642.8412    1173.6667    -33537.97    1.2450659    58.444612    56.831081    58.048875    192807.62            9 
   10000    300.91871    341.25599    98769.181    15130.284    83638.897    12543.053    15231.015    29975.906    3567.6695    1203.3949   -33528.895    1.2490513    58.120628    57.226738    57.783916    192192.42           10 
   11000    299.22978   -191.62241    98411.656    15045.364    83366.292    12583.712    15130.793    29832.989     3586.403    1183.1016    -33541.76    1.2487509    57.910932    57.190713     58.04364    192238.65           11 
   12000    299.47915    384.38701    98620.611    15057.903    83562.709     12897.79    15165.469    29769.143    3484.8719    1182.1385   -33536.911    1.2552279    58.152604    56.874436    57.823938    191246.69           12 
   13000    298.01221    -853.0014    98391.322    14984.144    83407.178    12841.267    15142.887    29779.393    3387.2397    1185.0548   -33535.533      1.25743    58.293853     56.75584    57.703136    190911.78           13 
   14000    301.75834    400.13152    98750.656    15172.501    83578.155    12937.167    15159.972     29614.34    3585.8457    1208.5905   -33542.642    1.2497228    58.154095    56.705785      58.2499    192089.16           14 
   15000    299.12991    189.92234     98512.58    15040.343    83472.237    12924.706    15283.821    29627.489    3434.8106    1150.4098   -33540.272    1.2523582    57.969279     57.01281    57.998617    191684.94           15 
   16000    302.12913   -681.75074    98593.059    15191.145    83401.915    12827.932    15112.468    29910.732    3377.2526    1159.7674   -33555.292    1.2562907    57.841684    56.990293    57.967503    191084.92           16 
   17000    298.24837   -32.317583    98367.171    14996.019    83371.152    12766.941    15169.353    29721.069    3481.4127    1170.8246   -33539.228     1.253907     57.93707    57.200465    57.769038    191448.17           17 
   18000    297.95548   -369.97765    98397.281    14981.292    83415.988    13054.195    15176.217    29620.221     3340.247     1173.907   -33534.252    1.2540229    58.552722    57.002556    57.354783    191430.47           18 
   19000    299.66973   -143.06628     98491.82    15067.485    83424.335    12901.681    15173.167    29705.107    3422.8244    1208.4245   -33551.795    1.2579456    58.044755    57.081123    57.596908    190833.52           19 
   20000    300.54681    1100.4689    98581.889    15111.585    83470.304    13130.568    14974.772    29666.785    3471.3131    1183.6508   -33534.141    1.2548631    58.114992    56.875333    57.877273     191302.3           20 
   21000    300.36818   -155.80098    98635.002    15102.604    83532.399    12985.511    15157.574     29704.91    3474.3139    1177.4949   -33542.289    1.2541793    58.063808    57.004467    57.828578     191406.6           21 
   22000    299.54485    340.91859     98343.49    15061.206    83282.284    12779.281    15142.579    29684.025    3458.0849    1181.9369   -33541.859    1.2551953    57.838479    57.388879    57.618324    191251.67           22 
   23000    300.40865    -106.3855     98517.07    15104.638    83412.432    12970.605    15251.627    29642.683    3312.3662    1201.0538   -33550.889    1.2577389    57.975155    57.157596    57.598369    190864.89           23 
   24000    302.72339   -141.87101     98690.64    15221.024    83469.616    13167.578    15136.739    29582.185    3344.3799    1192.6015   -33553.974    1.2627886    57.935701    56.839166     57.72872    190101.65           24 
   25000    297.96764    225.25497    98346.383    14981.903     83364.48    13070.113    15142.455    29627.361    3302.9621    1180.6104   -33543.405      1.25708     58.00186    57.173777    57.585721    190964.93           25 
   26000    297.81912   -868.32063    98577.472    14974.436    83603.036    13166.879    15110.445     29730.24    3345.1586    1207.7071   -33541.672    1.2560303    58.297169    57.058029    57.458222    191124.53           26 
   27000     300.5245    509.55004    98725.004    15110.463    83614.541     13181.77    15256.374    29521.872    3423.5639    1191.9679    -33542.39    1.2537512    57.995941    57.300121    57.617186    191471.96           27 
   28000    298.06674    610.21312     98446.46    14986.886    83459.573    12904.652    15193.732    29782.395    3364.4007    1191.5702   -33551.058    1.2650074    57.705988    57.205795    57.486062    189768.21           28 
   29000    304.67404    282.04239    98923.387    15319.104    83604.283    13049.783    15138.817    29774.934    3375.0846    1233.0947   -33547.706    1.2620129    58.014537    56.709632     57.81747     190218.5           29 
   30000    299.55587   -278.00052    98474.682     15061.76    83412.922    13046.008    15134.555      29623.7    3405.5287    1169.1007   -33549.194    1.2597032    58.134967    56.814256    57.697043    190567.27           30 
   31000      297.875    928.83886    98495.766    14977.246    83518.521    12962.497    15280.186    29527.058    3510.0488    1188.1184   -33547.307     1.252819    58.251409     57.26197     57.44543    191614.43           31 
   32000     300.9376    85.986088    98742.729    15131.234    83611.495    13158.232    15095.788    29769.869    3315.0225    1197.8009   -33541.969    1.2552004    57.902477    57.238619    57.705495    191250.89           32 
   33000    296.65431    764.37969    98333.385    14915.869    83417.516    13148.012    15185.762    29524.679    3361.7794    1167.0687    -33555.32    1.2609779    57.845462    57.196373     57.54019    190374.63           33 
   34000     302.8312     70.05986    98570.641    15226.445    83344.196    13164.122    15256.579    29467.882     3284.127    1187.2399    -33562.01    1.2627055    57.836989    56.789045    57.882092    190114.16           34 
   35000    299.32886    595.14583    98369.024    15050.346    83318.678    12939.118    15114.614    29601.765    3451.1775    1168.6286   -33544.492     1.258499    58.301531    57.087414    57.311705    190749.61           35 
   36000    300.59666     -702.575    98612.091    15114.091        83498     13126.32    15290.825    29553.222    3346.8776    1175.4247   -33558.588    1.2620349    58.055519    57.010806    57.470435    190215.18           36 
   37000    299.35524    624.37813    98521.963    15051.672     83470.29    13008.037    15193.249    29635.236    3389.1717    1207.9081    -33539.24    1.2577547    57.820877    57.282031     57.62587    190862.49           37 
   38000    302.83532    4.7336058    98691.697    15226.652    83465.044    13246.659     15244.12    29425.268    3327.6813    1155.3229   -33536.642    1.2592053    58.108443    56.848815    57.711096    190642.61           38 
   39000    297.12307    658.17397    98375.886    14939.438    83436.448    13097.458    15155.077    29568.722    3367.1297    1200.3102   -33537.151    1.2580522    58.042584    56.950596    57.726187    190817.36           39 
   40000    298.73537   -514.98716    98330.385    15020.505     83309.88    13020.269    15155.252    29524.344    3387.4769    1193.1194   -33542.369    1.2606465    57.997617    57.126388    57.474643    190424.67           40 
   41000    301.11507    229.63411     98654.52    15140.157    83514.363    13136.617    15080.783    29697.887    3375.4413    1194.9112   -33548.671     1.260127     57.84725    57.159928    57.613975    190503.18           41 
   42000     298.3192    85.914429    98432.826     14999.58    83433.246    13115.802      15313.6    29542.858    3260.4796    1191.6736   -33554.832    1.2691534    57.791066    56.692146    57.732295    189148.29           42 
   43000    297.80421   -681.06642    98216.384    14973.686    83242.698     12877.26    15100.745    29656.027    3381.5783    1201.0477   -33544.888    1.2658215    57.703901    56.992956    57.665719    189646.17           43 
   44000    301.62521   -183.77461    98532.963    15165.807    83367.156    13097.469     15195.59    29614.083    3236.2729    1211.1658   -33555.297    1.2653692    57.984558    57.041075    57.358691    189713.96           44 
   45000    300.09834    235.05053     98439.55    15089.036    83350.515    12903.612    15079.705    29766.513    3379.9131    1184.3101   -33556.055    1.2617857    58.203992    57.198661    57.146853    190252.75           45 
   46000    304.06508    167.16399    98598.252    15288.485    83309.767     13017.13    15016.911    29699.176    3331.7275    1182.0704   -33538.996    1.2617503    57.867033     56.89082    57.792266    190258.09           46 
   47000    303.12534    560.12249    98783.186    15241.234    83541.952    13176.717    15129.713     29550.27    3486.4067    1180.5131   -33544.331     1.258407    57.880023    56.913002    57.910221    190763.56           47 
   48000     297.0898   -196.55132    98421.664    14937.765    83483.899    12981.563    15095.003    29769.354    3397.5394    1202.0013   -33552.754    1.2593963    57.947348    57.041948    57.666846     190613.7           48 
   49000    303.54238    217.63907    98687.783    15262.203     83425.58    13218.194    15240.645    29455.428    3335.1326    1172.4545   -33554.755    1.2618951    57.992775    57.272017    57.276558    190236.25           49 
   50000    296.77882   -804.71965    98163.077    14922.129    83240.948     12984.28    15030.751    29826.008    3192.6858    1203.8356   -33551.506    1.2617742    57.866834    56.818461    57.864967    190254.48           50 
   51000    299.79657   -563.21165    98601.267    15073.863    83527.405    13059.774     15173.57    29692.587    3364.8227    1210.3453    -33553.18    1.2631544    57.803956    57.131537    57.547522    190046.59           51 
   52000    298.72055    681.53328     98432.27     15019.76    83412.511     13085.14    15045.091    29612.272    3425.7863      1196.56   -33539.006    1.2621811    57.966689    56.916388     57.64731    190193.15           52 
   53000     301.6114    425.98177    98625.914    15165.113    83460.801     13038.55    14996.393     29798.87    3397.1717     1214.858   -33554.308    1.2675251    57.864467    57.012249    57.408983    189391.28           53 
   54000    298.21966   -260.77296     98444.02    14994.575    83449.445    12941.403    15030.043    29881.175    3356.6497    1191.5524   -33544.064    1.2627068    58.050172    56.994935    57.461141    190113.97           54 
   55000    302.97122    934.98806    98886.389    15233.485    83652.904    13099.389    15156.239    29690.925    3442.4483     1222.439   -33544.771    1.2551999    57.995967     57.29991     57.55087    191250.96           55 
   56000     298.9595     820.4719      98323.8    15031.774    83292.026    13014.805    15126.314    29513.056    3364.9279    1191.1878   -33536.879     1.260339    57.843163    57.113057    57.655629    190471.13           56 
   57000    297.23131   -406.25255    98337.494    14944.881    83392.613    12972.778    15212.428    29715.467    3284.4315    1198.6697   -33555.778    1.2625884    57.894186    57.315993    57.298595    190131.79           57 
   58000    300.54595    1117.6635    98541.684    15111.542    83430.142    13168.648    15188.873    29459.185    3371.4289    1190.0987   -33536.776    1.2619501    58.022536    57.104677    57.412432    190227.95           58 
   59000    299.34129     878.5576    98449.414    15050.971    83398.442    13079.305    15236.641    29598.239    3245.4922    1201.0573   -33543.594    1.2626973    58.084247    56.852369    57.571873     190115.4           59 
   60000    298.67837     214.7745    98467.531    15017.639    83449.892    13240.484    15279.202    29374.107    3400.8975    1142.4503   -33560.536      1.25767    57.799562    57.385848    57.546707    190875.34           60 
   61000    300.93037    237.70125    98414.526    15130.871    83283.655    13088.642    15126.144      29583.1     3279.128    1172.0351   -33554.396    1.2649352    57.755682    56.866322    57.782775    189779.04           61 
   62000    301.37851   -471.14246    98417.595    15153.403    83264.192    12893.314    15027.142    29819.894    3326.1865    1203.0786   -33564.745    1.2614373    57.778788    57.036301    57.747222     190305.3           62 
   63000    297.28151   -839.06156    98413.494    14947.405    83466.089    13222.029    15050.973    29770.182    3206.2095    1208.3861   -33552.656    1.2663674    57.725407    57.086662    57.524804    189564.41           63 
   64000    300.24578    -210.7735    98585.701    15096.449    83489.252    13178.114    15064.155    29611.354    3385.7382    1234.2007   -33552.947    1.2621222    57.899092    57.067341     57.56463    190202.01           64 
   65000    299.99573   -482.19716    98492.568    15083.877    83408.692    13127.289     15084.98     29650.49    3306.7746    1224.5475   -33545.997    1.2636074    57.826571    57.097096    57.539078    189978.46           65 
   66000    301.08465   -419.81234    98760.865    15138.628    83622.237     13003.68    15146.656    29826.899    3401.6116    1212.5981   -33540.612    1.2556745    57.751588     57.02481    58.051265    191178.69           66 
   67000    297.73507    -311.8361    98466.125     14970.21    83495.915    13166.024    15096.221    29682.916    3358.7518    1183.3741   -33558.309    1.2599767    57.862772    57.147236    57.618181    190525.89           67 
   68000     301.3359   -706.29248    98655.403    15151.261    83504.142    13153.359    15134.219    29787.189     3216.277    1188.7462   -33550.611    1.2612836    58.028077    57.222579    57.318942    190328.48           68 
   69000     300.3917    1160.8578     98500.24    15103.786    83396.454     13166.35    15168.021    29497.481    3356.7664    1191.7782    -33564.51    1.2616435    58.035471    56.704985    57.818274    190274.19           69 
   70000    300.14411    471.24312    98575.178    15091.337    83483.841    13109.446    15188.764    29569.443    3382.6413    1185.5039   -33553.955    1.2593646    57.880851    57.135455    57.640066    190618.51           70 
   71000    302.23531    2.9141767     98615.61    15196.483    83419.127    12955.839    15257.882    29641.211    3362.7605    1172.6876   -33551.458    1.2612867    57.934791    56.938639    57.697395    190328.02           71 
   72000     298.9396   -399.32284    98355.995    15030.774    83325.221    13129.363     15149.91    29532.338      3277.09    1188.4673   -33548.162    1.2642488    57.727843    56.999581      57.7068    189882.08           72 
   73000    300.11113    736.53939    98669.374    15089.679    83579.695    13151.195     15240.31    29596.294    3356.7716    1202.2912   -33552.974    1.2575206    58.023468    57.435521    57.281869    190898.02           73 
   74000    297.45481     -493.374    98406.989    14956.118    83450.871    13065.741    15282.676    29599.357    3336.7617    1145.4555   -33548.649    1.2558635    58.151745    57.128391    57.538608    191149.91           74 
   75000    300.27472   -65.150761    98535.588    15097.904    83437.684    12906.143     15183.58    29804.657     3306.327    1212.3296   -33550.282    1.2593814    57.742265    57.205302    57.707088    190615.96           75 
   76000    302.54731    708.54045    98790.551    15212.171     83578.38    13201.274     15184.35    29612.257    3360.4154    1204.5725   -33548.568    1.2594513      58.1514    57.005687     57.49854    190605.39           76 
   77000    300.25551    250.88818    98402.069    15096.938    83305.131    12998.097    15189.794    29607.394    3321.9083    1158.7691   -33546.821     1.261968    57.756372    57.018182    57.763687    190225.26           77 
   78000    300.49814   -539.85753    98563.523    15109.138    83454.385    12940.369    15162.232    29849.151    3281.2179    1196.1698   -33554.476    1.2644255    58.177088    56.752967    57.501973    189855.55           78 
   79000    297.49755   -250.87643     98388.83    14958.267    83430.562    13044.841    15165.898    29753.461    3250.6206    1213.2924   -33557.884    1.2615477    57.752986    57.029435    57.774921    190288.64           79 
   80000    302.29624   -41.500326    98621.756    15199.547    83422.209    13043.337    15084.846    29728.362    3331.6681    1193.1167   -33547.519    1.2671089    57.655223    57.105317    57.542324    189453.48           80 
   81000    302.39047    524.27917    98627.893    15204.285    83423.608    13084.187    15109.471    29663.235    3337.7501    1189.9563   -33546.135    1.2609048    58.008291    56.987093    57.592731    190385.67           81 
   82000    296.46478   -111.40129    98337.712    14906.339    83431.373     13205.67    15087.925    29759.021    3190.5212    1177.3227   -33560.805     1.263455    58.048947    57.033084     57.38991    190001.38           82 
   83000     300.1951     773.2435    98640.192    15093.901    83546.291    13102.596    15289.604    29506.069     3418.114    1196.7226    -33545.76    1.2615772    57.992676    57.060933    57.503023    190284.19           83 
   84000    299.41773    84.290989    98203.574    15054.814     83148.76    12952.102    15094.084    29605.707    3276.3648    1184.5208   -33537.909    1.2633608    57.930744    57.331453    57.211994    190015.55           84 
   85000    301.08755   -224.80848    98539.481    15138.774    83400.707    13085.286    15140.617    29560.825    3417.8335    1180.5708   -33565.922    1.2605114    58.098332    57.121623    57.385948    190445.08           85 
   86000    302.51613    83.562579    98661.728    15210.603    83451.125    13142.879    15122.539    29591.985    3387.5114    1178.7245   -33551.696    1.2617053    57.801335    57.084581    57.663625    190264.87           86 
   87000     298.3128   -387.32688    98300.711    14999.258    83301.453    13059.386    15065.325    29612.176    3374.0956    1182.4864   -33549.723    1.2592137    58.356103    56.780724    57.534702    190641.34           87 
   88000    300.85948   -994.90634    98641.321    15127.306    83514.015    13255.373    15111.404    29692.751    3214.8488    1190.8294   -33546.492    1.2609912     57.89941    57.001854     57.68214    190372.62           88 
   89000    301.40745   -39.007467    98591.864    15154.858    83437.005        13255    15080.268    29611.754    3315.8329    1175.3767   -33557.611    1.2643909    58.021812    56.879317    57.529358    189860.75           89 
   90000    300.31829    1091.3766    98336.246    15100.095    83236.151    13010.486    15037.219    29541.923    3426.6019    1192.9132   -33554.767    1.2651208    57.951794    57.016693    57.426934     189751.2           90 
   91000    298.11378    312.02766    98353.062    14989.251    83363.811     13037.85    15110.049    29704.652    3304.3102    1193.7317   -33555.668    1.2635704    57.845776    57.137871    57.480611    189984.02           91 
   92000    298.35955    589.76987    98423.316    15001.609    83421.707    13109.187    15186.852     29589.02    3335.9473    1190.7639   -33557.418    1.2634439    57.701722    57.293139    57.473702    190003.05           92 
   93000    299.77117    11.901461     98522.28    15072.585    83449.695     13131.12      15077.5    29571.325    3426.0785    1222.2555   -33554.388    1.2555475    57.756321    57.110286    57.965492    191198.02           93 
   94000    298.92939    42.139026    98329.389    15030.261    83299.129    12950.857    15105.996    29616.154     3409.108    1197.1915   -33553.069     1.262613    57.917359    57.227672    57.362945    190128.08           94 
   95000    301.25295    72.346991    98480.105     15147.09    83333.015    13186.857     15182.64    29497.909    3259.6503    1186.4487   -33564.006    1.2610759    57.871636    56.952774    57.755675    190359.83           95 
   96000    297.71661    270.43212    98308.684    14969.282    83339.402    13006.023    15017.098    29746.691    3326.1978    1207.7451   -33552.762    1.2645678     57.71106    57.105271    57.602211    189834.18           96 
   97000    299.50905   -62.225245    98306.089    15059.406    83246.682    12732.951    15174.932    29882.618    3243.5077    1179.2361   -33557.113    1.2617219    57.537857    57.262892    57.746534    190262.36           97 
   98000     298.9155    60.156708    98433.832    15029.562     83404.27    13186.705     15152.11    29522.863    3330.6788    1193.7487   -33557.428     1.260127    57.994624    56.960057     57.66922    190503.18           98 
   99000    301.90346    89.131316    98678.565    15179.798    83498.767    13003.109    15085.581    29914.015     3259.539     1210.855   -33552.786    1.2706338    57.541074    57.067058    57.535075    188927.92           99 
  100000    301.84128    1442.1786    98530.899    15176.671    83354.227    13108.336    15135.268    29556.277    3358.9986    1187.9657    -33557.57    1.2655056    57.851556      57.1367    57.388155    189693.51          100 
  101000    296.91827    325.35692     98174.55    14929.141    83245.409    12921.631    15133.414     29592.54    3406.6151    1190.5592   -33565.528    1.2630572    57.747288    57.025042     57.71601    190061.22          101 
  102000     301.2023   0.86880247    98515.111    15144.543    83370.568    13088.399    15172.802    29520.684    3367.8217    1172.5541   -33541.582     1.262753    57.721416    57.098281     57.68171    190107.01          102 
  103000    300.33401    439.29253    98632.409    15100.885    83531.523    13166.676    15156.237    29702.286    3322.4789    1163.5496   -33556.193    1.2613745    57.876712    57.053487    57.635022    190314.77          103 
  104000    300.79275   -174.17064    98562.058    15123.951    83438.107    12951.997    15146.187    29716.589    3390.8762    1200.6861   -33556.688    1.2603079    57.555561    57.065259    57.993695    190475.82          104 
  104116    299.55663   -1023.4128    98512.693    15061.799    83450.895    13168.989    15082.999    29718.426    3278.6972    1190.3784   -33556.236    1.2595535    57.610794    57.017577     58.02128    190589.92      104.116 
Loop time of 1185.43 on 32 procs for 100000 steps with 16869 atoms

Performance: 7.288 ns/day, 3.293 hours/ns, 84.357 timesteps/s
97.7% CPU use with 32 MPI tasks x no OpenMP threads

MPI task timing breakdown:
Section |  min time  |  avg time  |  max time  |%varavg| %total
---------------------------------------------------------------
Pair    | 449.23     | 495.39     | 528.65     |  70.1 | 41.79
Bond    | 130.68     | 141.48     | 152.02     |  32.3 | 11.93
Kspace  | 262.96     | 306.95     | 363.56     | 109.3 | 25.89
Neigh   | 38.427     | 38.458     | 38.489     |   0.3 |  3.24
Comm    | 25.962     | 26.377     | 26.925     |   5.2 |  2.23
Output  | 0.23791    | 0.23809    | 0.24019    |   0.1 |  0.02
Modify  | 74.261     | 150.28     | 166.16     | 215.1 | 12.68
Other   |            | 26.25      |            |       |  2.21

Nlocal:        527.156 ave         568 max         492 min
Histogram: 2 0 2 7 6 9 4 1 0 1
Nghost:        8485.91 ave        8568 max        8433 min
Histogram: 5 4 6 4 4 2 1 1 4 1
Neighs:        267928.0 ave      289765 max      245320 min
Histogram: 2 0 2 4 5 10 5 3 0 1

Total # of neighbors = 8573693
Ave neighs/atom = 508.25141
Ave special neighs/atom = 5.6421839
Neighbor list builds = 4075
Dangerous builds = 0

#------temp initialization-----

unfix               1
velocity            all create ${stemp} 875321
velocity            all create 100 875321
fix                 2 all npt temp ${stemp} ${stemp} 100 x 1 1 1000 y 1 1 1000 z 1 1 1000
fix                 2 all npt temp 100 ${stemp} 100 x 1 1 1000 y 1 1 1000 z 1 1 1000
fix                 2 all npt temp 100 100 100 x 1 1 1000 y 1 1 1000 z 1 1 1000
run                 100000 # 100 ps
PPPM initialization ...
  using 12-bit tables for long-range coulomb (../kspace.cpp:340)
  G vector (1/distance) = 0.37737465
  grid = 60 60 60
  stencil order = 5
  estimated absolute RMS force accuracy = 0.0003155099
  estimated relative force accuracy = 9.5014868e-07
  using double precision KISS FFT
  3d grid and FFT values/proc = 17908 7200
WARNING: Inconsistent image flags (../domain.cpp:814)
Per MPI rank memory allocation (min/avg/max) = 16.85 | 17.14 | 17.29 Mbytes
Step Temp Press TotEng KinEng PotEng E_bond E_angle E_dihed E_vdwl E_impro E_long Density Lx Ly Lz Volume v_Time 
  104116          100   -3429.9734    88478.926    5028.0304    83450.895    13168.989    15082.999    29718.426    3278.6972    1190.3784   -33570.692    1.2595535    57.610794    57.017577     58.02128    190589.92      104.116 
  105000     95.74842    141.28113    77684.646    4814.2597    72870.387    9207.9367    12640.979    27065.379    2581.9409    472.64038    -33608.72    1.2960225    57.333996    56.724388    56.953704    185226.88          105 
  106000    101.97955   -135.14123     78184.89    5127.5627    73057.327    9306.5395    12755.713    27056.971    2525.7971     482.6147   -33600.244    1.2987611    57.256699    56.654693    56.980343    184836.29          106 
  107000    99.514353   -96.544575    77880.731    5003.6119    72877.119    9228.8366    12655.161    27010.898    2593.6782     473.5896   -33605.408    1.2961638    57.457564    56.458247    57.092891    185206.67          107 
  108000    100.23579   -362.91284    78057.538    5039.8858    73017.652    9288.6333    12670.053    27136.358     2504.572    492.72307   -33606.742    1.2969463    57.237903    56.713797    57.019331    185094.94          108 
  109000    100.30444   -628.88927     78001.17    5043.3379    72957.832    9205.3441    12717.347    27139.789    2500.2557    467.73716   -33606.404    1.2966167    57.244591    56.932534     56.80806    185141.99          109 
  110000    99.090632     193.8989    77966.709    4982.3071    72984.402    9341.0937    12684.528    27011.648    2531.6604    492.75491   -33603.499    1.2950097    57.325339    56.743865    56.987287    185371.74          110 
  111000    100.14247    173.38272    78065.497     5035.194    73030.303    9287.8551    12724.852    27070.406    2546.1469    477.75311   -33602.298    1.2970734    57.201906     56.79365    56.969405    185076.79          111 
  112000    99.718186    254.15903    77921.349    5013.8607    72907.488     9307.084    12737.654    26975.381    2493.4258    472.68418   -33604.371    1.3009271    57.174299    56.756237    56.865535    184528.55          112 
  113000    100.36503    239.04451    78068.385    5046.3842    73022.001    9270.5517    12742.138     27039.46    2558.2914    473.13502   -33601.268    1.2956375    57.431743     56.65179    56.946548    185281.92          113 
  114000    100.34468   -348.88123    78005.939     5045.361    72960.578     9270.811    12682.499    27032.576    2574.0649    476.69074   -33603.053    1.2967096    57.314551     56.76422     56.90288    185128.73          114 
  115000     99.51335    632.49114    77938.315    5003.5615    72934.753    9234.9423    12680.218    27108.252    2523.9693    476.96597   -33605.254    1.2995576    57.181367    56.765644    56.908994    184723.02          115 
  116000    100.08827   -260.83068    78052.664    5032.4684    73020.196    9269.4005    12680.952    27109.449    2585.4908    475.13571   -33607.362    1.2951665    57.413455    56.642227    56.995024     185349.3          116 
  117000    100.07325     -690.144    77990.086    5031.7132    72958.373    9278.1329    12715.804    27043.853    2536.7603    484.43933   -33602.123    1.2984967    57.143303    56.643462    57.116365    184873.94          117 
  118000    99.790523    267.34677    78011.561    5017.4978    72994.064    9355.7648    12717.511    26968.311    2545.9789    479.79846   -33602.987    1.2982958    57.154251      56.6972    57.060126    184902.54          118 
  119000    100.66995   -738.85951    77982.162    5061.7157    72920.446    9261.6303    12705.548     27006.94    2537.3265    477.73419   -33599.335    1.2957393    57.425447    56.546904    57.053946    185267.36          119 
  120000    99.076934   -440.96553    78000.233    4981.6183    73018.615    9195.4798     12731.75    27123.713    2565.6253    480.86142    -33603.51    1.2944225    57.370867     56.74264     56.96912    185455.82          120 
  121000    100.22892   -670.34561    77985.682    5039.5405    72946.142    9334.3685    12679.829    27039.289     2493.717     488.3183    -33608.15    1.2966645    57.341081    56.718647    56.924233    185135.17          121 
  122000    100.28213    202.03136    78052.183    5042.2161    73009.967    9254.0793    12697.081    27100.153    2574.7464    487.72907   -33615.133    1.2959685    57.353936    56.819552    56.840916    185234.59          122 
  123000      99.9007    519.51298    77900.719    5023.0375    72877.681    9245.6123    12672.307    26967.239    2604.8815    482.12156   -33609.458     1.296555    57.140598    56.688888    57.158769     185150.8          123 
  124000    99.260191   -215.99587    77959.331    4990.8326    72968.499     9273.987    12732.415    27041.516    2516.9829    479.94087   -33603.026    1.2976335    57.456423    56.804009     56.68223    184996.92          124 
  125000       100.17     33.34052    78029.977     5036.578    72993.399    9345.9157    12762.485    26969.383    2531.8289    482.05445   -33609.715    1.2975718    57.275638    56.661781    57.006579    185005.71          125 
  126000    99.374642    207.70067    77989.131    4996.5872    72992.544     9297.445    12694.635    27050.944    2532.7113    493.76354   -33606.585    1.2971245    57.356536    56.760951    56.846311     185069.5          126 
  127000    99.836467   -40.284339    77961.808    5019.8079        72942     9320.333    12735.666    27002.608     2506.549    474.86539   -33607.767    1.2951364    57.217257    56.838005    56.994792     185353.6          127 
  128000    100.54978    -420.5724    78043.989    5055.6736    72988.316    9246.3244    12678.616    27179.197    2487.5218    486.61586   -33607.936    1.2958304    57.189455    56.773667    57.056545    185254.33          128 
  129000    100.30511   -21.985654    77989.373    5043.3716    72946.001    9259.4395    12687.618    27075.513    2537.0999    475.67271   -33606.253    1.2971897    57.453946    56.679995    56.828134    185060.21          129 
  130000    100.79993    515.06413    78029.059    5068.2512    72960.808    9229.0664    12723.237    27062.107    2549.3824     483.6554    -33607.89    1.2956532     57.30039    56.734253    56.993436    185279.66          130 
  131000    100.65515    833.09875    78046.361    5060.9716     72985.39    9305.6467    12711.078    26989.903    2574.2117    473.57144   -33606.278    1.2988454    57.495388    56.551982    56.843163     184824.3          131 
  132000    100.18645   -517.59441    77975.206    5037.4053    72937.801      9316.58    12687.029    27049.876    2515.1306     468.6397   -33609.444    1.2990337    57.322353     56.71167    56.845967     184797.5          132 
  133000    99.828324   -355.22682    78013.631    5019.3985    72994.233     9202.781    12742.612    27121.752    2536.2489    469.72116   -33612.723    1.2976098    57.350006    56.722237    56.870309    185000.29          133 
  134000     98.34666    130.26351    77897.005    4944.8999    72952.105    9284.8914    12727.559    27082.355    2468.9312    475.17896   -33609.971    1.2962043    57.356795    56.851435    56.795873     185200.9          134 
  135000    100.35516    69.061138    78047.207    5045.8879    73001.319    9231.7817    12677.277    27128.632    2556.8468    491.27229   -33605.748    1.2966656    57.302193    56.823679    56.857524       185135          135 
  136000    99.961677    97.741527     77989.66    5026.1035    72963.557    9348.1974    12713.118    26981.802    2524.2876     476.9974   -33600.769    1.2981264    57.298725    56.716211      56.9046    184926.67          136 
  137000    99.472703   -267.40803    77969.556    5001.5177    72968.038    9277.4664    12660.301    27134.477    2503.2663    484.75842   -33606.059    1.2971244    57.195492     56.72986     57.03762    185069.52          137 
  138000    100.06393    296.52911    78049.131    5031.2448    73017.887    9304.0999    12689.757    27093.793     2530.627    471.14063   -33605.813    1.2974963    57.372313    56.745786    56.829578    185016.48          138 
  139000    100.84385   -396.77694    78021.184    5070.4592    72950.725    9235.2542    12656.492    27113.518    2541.2636    477.08451   -33602.917     1.296197    57.444524    56.775399    56.785402    185201.94          139 
  140000    98.797856    539.77808    77987.794    4967.5862    73020.208    9280.0375    12777.499    27068.832    2492.1891    480.34928   -33608.837    1.2969145     57.35529    56.718994     56.89881    185099.48          140 
  141000    100.80187    360.32899    78031.645    5068.3487    72963.296     9277.536    12722.163    27045.215    2527.9998    475.46311   -33602.853    1.2972147    57.408708    56.651078    56.900846    185056.64          141 
  142000    100.00265    324.02585    78001.601    5028.1634    72973.438    9259.9957    12754.672    26963.605    2583.4422     480.8376   -33601.982    1.2963437    57.382278    56.698809    56.917349    185180.98          142 
  143000    99.627642    261.96079    77954.718    5009.3081     72945.41    9251.2401    12748.743    27008.075    2557.3822     477.3278   -33609.196    1.2968917    57.208314    56.728743    57.036193    185102.74          143 
  144000     101.0828   -671.21291    78072.169    5082.4737    72989.696    9236.9237     12749.06    27092.148    2517.4635    494.82743   -33609.548    1.2977761    57.314664    56.854574    56.765647    184976.58          144 
  145000    99.446418   -204.45456    78023.108    5000.1961    73022.912    9268.1876    12765.304    27092.631    2494.1481    492.64232   -33606.851    1.2963019    57.346395    56.858938    56.794398    185186.94          145 
  146000    99.108819    234.19349    77979.377    4983.2215    72996.155    9240.4456    12701.695    27071.786    2586.2236    478.57404   -33606.365    1.2979306    57.275551    56.832957    56.819254    184954.56          146 
  147000    99.199999    145.08571    78025.794    4987.8061    73037.988    9283.2603    12712.881    27048.877    2595.0638    484.75837   -33608.264    1.2978565     57.29012    56.620408    57.021301    184965.13          147 
  148000    98.913292    322.81565    77937.283    4973.3904    72963.893    9285.3069    12738.947    27008.751    2528.4515     483.8444   -33606.646    1.2976688    57.309314    56.894323    56.735978    184991.89          148 
  149000    99.828719    257.69883    78033.462    5019.4183    73014.044     9341.372    12755.707    26943.021     2563.316    486.75047   -33603.974    1.2979858    57.251312    56.757246    56.916714     184946.7          149 
  150000    100.31201    69.377274    78014.643    5043.7184    72970.924    9278.1925    12684.397    27092.649    2511.9453    480.64861   -33606.154    1.2962156    57.363074    56.743246    56.897439    185199.28          150 
  151000    101.46663  -0.62435844    78069.088    5101.7731    72967.315    9262.3416    12706.458    27016.582    2567.8922    486.25376   -33598.593    1.2982267    57.264343    56.829187    56.821182    184912.38          151 
  152000    100.13237    307.04807    77972.564    5034.6858    72937.879    9257.7575    12680.451     27084.76     2521.969    483.37598   -33605.396    1.3001388    57.301869    56.771289    56.758286    184640.44          152 
  153000    99.483103   -196.45799    78038.291    5002.0406     73036.25    9216.7476     12698.28    27170.481    2566.9243    482.43203   -33607.982    1.2970236    57.396296    56.808886    56.763416    185083.91          153 
  154000    99.884614      691.078    77970.272    5022.2288    72948.043    9304.4595    12766.355    26961.588    2513.6562     482.1338   -33605.405    1.2982194    57.185951    56.801183    56.927447    184913.42          154 
  155000    99.969925    176.21769    78001.695    5026.5182    72975.177    9228.5266    12650.914    27100.786     2619.068    476.24455   -33613.836    1.2992106    57.230429    56.815612    56.825373    184772.35          155 
  156000    99.806771    578.47746    78031.496    5018.3148    73013.181    9305.1392    12665.257    27040.977    2616.5766     479.7733   -33607.757    1.2977655    57.362978    56.677829     56.89517    184978.09          156 
  157000    100.02515    619.51643    77980.314     5029.295    72951.019    9298.9531    12728.462    26975.859    2562.6574    472.89227   -33607.246    1.2990541    57.256219    56.888701    56.733636    184794.61          157 
  158000    100.22693    148.07942    78028.487    5039.4406    72989.047    9350.5149    12793.623    26934.291    2514.3268    488.92717    -33602.74    1.3004463    57.334235    56.748778    56.735327    184596.77          158 
  159000     100.4486    157.52883    78011.846    5050.5863    72961.259    9224.2537    12732.082    27075.055     2533.165    475.52587   -33604.456    1.2982024    57.328302     56.82098    56.767049    184915.84          159 
  160000    99.502342    395.76491    77923.778     5003.008     72920.77    9320.6076     12716.95    26944.953    2535.6276    480.81374   -33601.911     1.298473    57.268445    56.801298    56.834225     184877.3          160 
  161000    101.63575    433.80415    78007.263    5110.2766    72896.986    9282.5807    12667.724    26962.745    2605.5378    462.64542   -33608.598    1.2977285    57.342027    56.764496    56.830683    184983.38          161 
  162000    98.882302   -467.27027    77969.958    4971.8322    72998.126    9300.6922    12689.391    27135.435    2479.1774    484.25221   -33607.664    1.2968267    57.367998    56.660535    56.948752       185112          162 
  163000    99.181775   -81.047423    77976.638    4986.8898    72989.748    9238.3704    12727.596    27152.588    2485.1665    474.18652    -33611.67    1.2978404    57.175899    56.736652     57.01886    184967.42          163 
  164000     100.0219   -117.50907    77947.585    5029.1316    72918.454    9290.6025    12707.598    27024.783    2511.4417    473.96898   -33606.092    1.2988473    57.498768    56.688391    56.702965    184824.03          164 
  165000    100.17067   -299.48305     78048.64     5036.612    73012.028    9255.3222    12689.746    27136.058    2541.5544    478.69989    -33600.78    1.2967318    57.371574    56.750692    56.858899    185125.55          165 
  166000    100.31905    137.01934    77974.883    5044.0724     72930.81    9235.8343    12747.409     27003.02    2555.0859    467.36898   -33601.508    1.2992003    57.177423     56.83831    56.855786    184773.81          166 
  167000    100.41077    299.12565    77994.645    5048.6841    72945.961     9256.539    12719.301    27120.439    2477.2651    473.30216   -33606.532    1.2984359    57.205131    56.848551    56.851462    184882.59          167 
  168000    101.41629    156.62197    78120.009    5099.2421    73020.767     9357.357     12747.63    26948.999    2544.3382    476.41059   -33600.521    1.2967954    57.242391    56.857155    56.877721    185116.48          168 
  169000    100.02237   -582.67343    77998.152     5029.155    72968.997    9160.4878    12684.945    27181.774    2532.7974    482.60838   -33601.605    1.2956618    57.428938    56.889708    56.710095    185278.43          169 
  170000    100.36176    64.433969    78010.854    5046.2196    72964.634     9304.735     12723.97    26984.339    2544.4982     483.4412   -33600.843    1.2976875    57.171978     56.68945    57.076975    184989.21          170 
  171000    100.02723   -195.02586    77967.287    5029.3996    72937.887    9283.4334    12689.119    27017.633    2537.3809    478.88999   -33604.747    1.2942935    57.294147    56.986384     56.80707     185474.3          171 
  172000    100.20569    129.88198    78051.527    5038.3728    73013.155    9296.1369    12687.638    27111.514    2506.5511    482.62304   -33605.293     1.297888    57.278285    56.874669    56.776735    184960.63          172 
  173000    100.82753    178.64312    78024.791    5069.6391    72955.152    9318.2103    12667.742    27074.188    2496.8242     474.7662   -33599.457    1.2984966    57.327503    56.787007    56.788935    184873.95          173 
  174000    99.446984    244.74316    77975.325    5000.2246    72975.101     9217.667    12733.752    27093.567    2535.4858    480.17128   -33607.979    1.2992311    57.159867    56.924517    56.785775    184769.43          174 
  175000     100.2384   -452.33201    78034.256    5040.0174    72994.238    9270.8187    12724.876    27080.913    2525.2599    483.98188    -33605.37     1.296983    57.292317    56.951474    56.725836     185089.7          175 
  176000    100.12303   -176.73475    78042.007    5034.2164     73007.79     9370.149    12677.202    27045.818    2515.1609    479.49065   -33606.902    1.2958626    57.513193     56.80107    56.706598    185249.73          176 
  177000    99.350056    -111.7152    77924.017     4995.351    72928.666    9261.0605    12676.134    27059.274     2509.979    487.47244   -33597.506    1.2973482    57.268248    56.804735    56.880257     185037.6          177 
  178000    99.966774   -161.59676    78048.119    5026.3598    73021.759    9232.1934    12737.141    27111.851    2548.1795    482.92118   -33607.202    1.2972032    57.145446    56.907546    56.905867    185058.28          178 
  179000    99.923164    -109.8393    77972.989     5024.167    72948.822     9274.357    12666.788    27114.251    2508.4136    474.77171   -33605.005    1.2970872    57.479654    56.812383    56.674826    185074.83          179 
  180000     100.2204    -226.9704    77961.946     5039.112    72922.834    9270.2291    12689.796    27120.226    2470.0526     479.7224   -33611.338    1.2987948    57.293255    56.710165    56.886809     184831.5          180 
  181000    100.59826   -116.13749     78065.88     5058.111    73007.769    9302.6908    12696.807     27013.67    2576.7434    486.93735   -33598.809    1.2948987    57.433814    56.914324    56.714161    185387.63          181 
  182000    100.76423   -252.30683    77987.733    5066.4562    72921.277    9258.1286    12678.997    27038.418    2545.5097    483.03422   -33598.242    1.2974137    57.286588    56.717042    56.947087    185028.25          182 
  183000    100.41881    15.240384    77968.667    5049.0882    72919.579    9261.4407    12622.701    27115.433    2535.0739    473.79703   -33609.166    1.2982069    57.316915    56.785491    56.813615     184915.2          183 
  184000    100.07454   -240.16949     78009.16    5031.7783    72977.381     9305.934    12697.359    27072.476    2507.9802    478.15077   -33604.104    1.2962819    57.355379    56.703455    56.942087     185189.8          184 
  185000     99.79324    21.818565    77988.531    5017.6344    72970.896    9295.6676    12704.559    27043.186    2539.9976    479.34757   -33603.645    1.3008969    57.174348    56.848238    56.774778    184532.84          185 
  186000    99.788689   -242.30078    77994.662    5017.4056    72977.257    9304.0136    12759.349    27077.259    2461.5258    477.88289   -33608.653    1.2976988    57.336871     56.72366    56.878012    184987.61          186 
  187000    99.689583     334.1943    77962.736    5012.4225    72950.314    9323.7908    12749.068    26988.193    2496.5413    471.21634   -33600.598    1.2998659    57.264524    56.876698    56.701944     184679.2          187 
  188000    101.33527   -95.762631    78065.261    5095.1683    72970.093    9278.9924    12765.624    26983.088    2553.3247    472.80689   -33605.673    1.2962878    57.477908    56.643798    56.880288    185188.97          188 
  189000    99.412577   -237.38477    77945.612    4998.4946    72947.118    9388.6687    12704.524     26967.91    2505.8769    474.96566   -33606.666    1.2989277    57.229423    56.947317    56.707295     184812.6          189 
  190000    100.31347   -262.23595    77995.317    5043.7915    72951.525    9318.0024    12743.786     27022.71    2478.3591    478.42322   -33604.341    1.2995032    57.364471    56.725403    56.769963    184730.75          190 
  191000    100.54091    530.06263    78049.242    5055.2273    72994.014    9272.2689    12738.944    27025.424    2568.7142    474.88996   -33607.655    1.2970617    57.306415    56.829949    56.829702    185078.47          191 
  192000    99.663736   -237.18662    77960.257    5011.1229    72949.134    9272.5119    12727.465    27049.006    2515.2056    481.96701   -33612.709    1.2970516    57.210958    56.735869     57.01936     185079.9          192 
  193000    99.457474    237.41669    77973.451     5000.752    72972.699    9298.5306    12704.225    27031.606    2559.1165    469.41393   -33607.674    1.2982383     57.34514    56.625893    56.944322    184910.73          193 
  194000    101.19265    -147.7552    78052.093     5087.997    72964.096    9254.4658     12702.63    27036.408    2562.1263    476.55049   -33598.638    1.2999075    57.305045    56.705593    56.831002    184673.28          194 
  195000    100.01662   -700.68952    77973.756     5028.866     72944.89    9248.9154    12668.067    27133.136    2500.9488     484.4861   -33602.109    1.2975171    57.340408    56.849074     56.75698    185013.52          195 
  196000    99.398015    -610.2693    77998.194    4997.7624    73000.431    9280.9857    12636.805    27134.347    2547.4032    480.31305   -33601.856    1.2950906    57.491659    56.699839    56.862993    185360.15          196 
  197000    98.935963    217.62117    77935.037    4974.5303    72960.506    9245.2692    12665.504    27110.629    2560.2546    478.65497   -33610.131    1.2974999    57.284183    56.745803    56.916835    185015.97          197 
  198000    99.604871    96.618939    77972.576    5008.1632    72964.412     9290.502    12744.987     26994.88    2537.5953     476.9023    -33603.28    1.2979968    57.378288    56.758806    56.788717    184945.13          198 
  199000    100.17103    207.70744    78017.024    5036.6296    72980.394    9268.7192    12723.108    27015.629    2588.0816     485.3066   -33610.107    1.2956266    57.420711    56.681832    56.927776    185283.46          199 
  200000    99.639498    243.53719    77927.819    5009.9043    72917.915    9257.2995    12714.321    27006.458     2544.665    472.89857   -33605.992    1.2985065    57.417551    56.699585    56.786859    184872.53          200 
  201000    101.13997   -580.51382    78045.178    5085.3483     72959.83    9298.7652    12691.386    27075.364     2517.358     473.7053   -33609.129    1.2968278    57.241175    56.642359    57.093197    185111.86          201 
  202000    99.476026    21.495766    77933.177    5001.6848    72931.492    9222.8571    12698.741    27045.385    2558.3407    489.72194   -33604.627    1.2980871    57.327935    56.730343    56.863158    184932.26          202 
  203000    100.76895    369.05969    77991.536    5066.6933    72924.843    9231.5157    12780.029    26962.541    2573.9713    466.81825   -33608.794    1.2982949    57.313902    56.713476    56.884893    184902.67          203 
  204000     99.90048   -452.57387    77978.628    5023.0265    72955.601    9223.5302    12677.849    27142.506     2504.625    485.08712    -33605.69     1.297219    57.329529     56.68728    56.942855    185056.02          204 
  204116    100.57485   -485.06661    78008.788    5056.9341    72951.853    9267.2196    12706.292    27119.824    2479.4238    486.23139   -33613.267    1.2972418    57.367665    56.704007    56.887214    185052.77      204.116 
Loop time of 1169.61 on 32 procs for 100000 steps with 16869 atoms

Performance: 7.387 ns/day, 3.249 hours/ns, 85.499 timesteps/s
97.7% CPU use with 32 MPI tasks x no OpenMP threads

MPI task timing breakdown:
Section |  min time  |  avg time  |  max time  |%varavg| %total
---------------------------------------------------------------
Pair    | 448.02     | 506.57     | 545.39     |  88.8 | 43.31
Bond    | 127.3      | 140.93     | 152.42     |  41.1 | 12.05
Kspace  | 260.37     | 310.76     | 382.52     | 139.3 | 26.57
Neigh   | 8.6013     | 8.6077     | 8.6136     |   0.1 |  0.74
Comm    | 24.433     | 24.923     | 25.551     |   5.9 |  2.13
Output  | 0.24148    | 0.24168    | 0.24382    |   0.1 |  0.02
Modify  | 74.806     | 150.92     | 167.87     | 217.1 | 12.90
Other   |            | 26.65      |            |       |  2.28

Nlocal:        527.156 ave         560 max         486 min
Histogram: 2 0 0 3 7 9 5 4 1 1
Nghost:        8654.09 ave        8738 max        8592 min
Histogram: 1 7 4 6 5 1 1 1 2 4
Neighs:        276062.0 ave      291315 max      248463 min
Histogram: 1 1 1 0 3 6 5 8 4 3

Total # of neighbors = 8833973
Ave neighs/atom = 523.68089
Ave special neighs/atom = 5.6421839
Neighbor list builds = 900
Dangerous builds = 0


#-----------anneal------------------

unfix               2

#------------Heating aneal sim------------
fix                 3 all npt temp ${stemp} ${etemp} 100 x 1 1 1000 y 1 1 1000 z 1 1 1000
fix                 3 all npt temp 100 ${etemp} 100 x 1 1 1000 y 1 1 1000 z 1 1 1000
fix                 3 all npt temp 100 770 100 x 1 1 1000 y 1 1 1000 z 1 1 1000
variable            steps equal 1000000/dt*(v_etemp-v_stemp)/v_hrate # rate of cooling in K/ns


#------------Cooling aneal sim------------
#fix                3 all npt temp ${etemp} ${stemp} 100 x 1 1 1000 y 1 1 1000 z 1 1 1000
#variable           steps equal steps equal 1000000/dt*(v_etemp-v_stemp)/v_hrate # rate of cooling in K/ns

# run desired heating or cooling sim
variable            fsteps equal round(v_steps)
run                 ${fsteps}
run                 13400000
PPPM initialization ...
  using 12-bit tables for long-range coulomb (../kspace.cpp:340)
  G vector (1/distance) = 0.37829224
  grid = 60 60 60
  stencil order = 5
  estimated absolute RMS force accuracy = 0.00030624245
  estimated relative force accuracy = 9.2224003e-07
  using double precision KISS FFT
  3d grid and FFT values/proc = 17908 7200
WARNING: Inconsistent image flags (../domain.cpp:814)
Per MPI rank memory allocation (min/avg/max) = 16.85 | 17.16 | 17.29 Mbytes
Step Temp Press TotEng KinEng PotEng E_bond E_angle E_dihed E_vdwl E_impro E_long Density Lx Ly Lz Volume v_Time 
  204116    100.57485    -485.0628    78008.789    5056.9341    72951.855    9267.2196    12706.292    27119.824    2479.4238    486.23139   -33687.111    1.2972418    57.367665    56.704007    56.887214    185052.77      204.116 
  205000    99.828155   -504.02539    77956.085      5019.39    72936.695    9248.1067    12654.155    27127.338    2515.2574    476.45696   -33677.625    1.2961472     57.40762     56.87412    56.725455    185209.06          205 
  206000     100.0455    498.41035    78008.303     5030.318    72977.985    9358.3186    12747.812    26927.818    2543.0011    486.85547   -33682.212    1.2983667    57.247086    56.750343    56.911139    184892.44          206 
  207000    101.41174   -52.160075    78066.139    5099.0132    72967.126    9269.3672    12775.584     27038.55    2481.7512    481.91037   -33676.961    1.2958382    57.303056    56.754235    56.962587    185253.22          207 
  208000    99.422707   -21.828523    77963.305    4999.0039    72964.301    9318.8813      12736.7    26987.258    2509.5922    490.05159   -33671.238    1.2995131    57.255825    56.767597    56.834974    184729.33          208 
  209000    100.35137   -340.55037    78038.144    5045.6973    72992.447     9316.899    12755.412    27039.482    2500.0537    482.37082   -33684.878     1.296456    57.416568    56.815967    56.761139    185164.93          209 
  210000    100.08226    440.04763    78023.823    5032.1665    72991.657    9302.2512    12738.192    26990.493    2585.0541    470.50643   -33679.639    1.2949212    57.469867    56.772476    56.819205     185384.4          210 
  211000    99.615715    332.22193    77924.949    5008.7084     72916.24    9232.2394    12713.942    27055.002    2532.3862    469.80773    -33684.26    1.2982266    57.287609    56.792037    56.835265     184912.4          211 
  212000    100.69233     413.8474    78034.851     5062.841     72972.01    9277.6808    12737.878    26982.494    2583.0368    486.97059    -33678.81    1.2965692    57.356036      56.6453    56.987267    185148.78          212 
  213000    101.13496    225.76577    78105.106    5085.0965     73020.01    9292.8153    12782.712     27014.65    2524.7976    481.59471   -33671.444    1.2949678    57.333068    56.725155    57.000238    185377.73          213 
  214000    100.32742   -349.17583    78021.034    5044.4931    72976.541    9338.6278    12680.891    27077.711    2458.6174    494.44182   -33672.423    1.2978779    57.476055     56.75102    56.705094    184962.08          214 
  215000    100.62056   -325.85419    78023.744    5059.2321    72964.512    9264.9812    12688.049    27092.928    2549.7676    474.34767   -33684.264    1.2975912    57.366004    56.793974    56.783453    185002.95          215 
  216000    100.94619    250.24032    78045.242    5075.6051    72969.636    9241.0314    12717.772    27071.678    2528.3844    479.17673   -33677.281    1.2953899    57.209975    56.915723    56.913068    185317.32          216 
  217000    100.88702   -616.71653    78041.442      5072.63    72968.812    9279.7453    12677.713    27073.106    2544.8517    487.44861   -33687.693    1.2960126    57.328185    56.682844    57.001657    185228.28          217 
  218000    100.13771    104.12498    78000.452    5034.9547    72965.497    9312.4988    12733.583    26948.385    2587.7978    471.44885   -33677.574    1.2957535    57.503879    56.820941    56.700721    185265.33          218 
  219000    100.81866   -211.41419    78072.083    5069.1931     73002.89    9320.9434    12745.659     27027.75    2523.3382    490.56037   -33682.059    1.2984609    57.358423    56.709597    56.837359    184879.03          219 
  220000    100.50581    374.85905    78094.234    5053.4626    73040.772    9299.5125    12776.773    26979.458    2577.1106    478.14444   -33677.626    1.2957198    57.348551    56.828037    56.848672    185270.14          220 
  221000    100.16763   -158.78207    78024.188    5036.4588    72987.729    9286.4625    12725.533    27058.752    2551.6641    473.23907   -33680.766    1.2961593    57.517604    56.686248    56.804097    185207.33          221 
  222000    101.23512    282.53688    78052.063    5090.1327    72961.931    9320.5135    12766.639    26997.313    2471.8764    473.88515   -33674.797    1.2970967    57.465858    56.683766    56.816645    185073.47          222 
  223000    101.39059    110.24172    78064.575    5097.9497    72966.625    9246.0863    12674.102    27101.207    2543.2625    483.86336   -33680.096    1.2984508    57.394909    56.647527    56.863908    184880.47          223 
  224000    101.43633    323.50677    78049.041    5100.2494    72948.791    9279.5045     12791.04    26985.441    2503.4962    475.70136   -33680.055    1.2969586    57.400689    56.766188    56.804609    185093.18          224 
  225000    100.95352   -340.09032    78130.283    5075.9736     73054.31    9349.6146     12709.22    27052.508    2528.9635    491.37161   -33676.465    1.2953581    57.391729    56.673451    56.976756    185321.87          225 
  226000    100.81795    334.29511    78037.282    5069.1574    72968.125    9249.8435    12702.239    27075.881     2536.779    480.29055   -33679.741     1.297898    57.348947    56.822468    56.758436    184959.21          226 
  227000    101.37742    823.34468    78093.157    5097.2877    72995.869    9416.5682    12668.923    26895.136    2629.1333    488.83734   -33683.533    1.2955077    57.551844    56.815146    56.669994    185300.48          227 
  228000    101.92389    101.46441    78189.663    5124.7642    73064.899    9298.4117    12777.969    27083.707    2492.5808     485.0751    -33675.87    1.2993325    57.372019    56.761593    56.733752    184755.01          228 
  229000    101.14164    64.186887    78088.654    5085.4325    73003.222    9308.8337    12780.426    26950.745    2557.8629    480.61326    -33675.94    1.2973566    57.241999    56.755009    56.955828    185036.39          229 
  230000    100.50297   -60.661473    78125.188    5053.3199    73071.868    9378.4199    12688.577    27082.241    2528.5009    476.48453   -33679.786    1.2988898    57.192428    56.855676    56.837092    184817.98          230 
  231000    101.68114    145.70974    78157.423    5112.5585    73044.865     9313.803    12691.084    27064.519    2568.0632     487.4401   -33675.762    1.2961262     57.52186    56.654395    56.833277    185212.05          231 
  232000    100.49086   -10.148577    78103.458    5052.7108    73050.747    9295.4318    12792.135    27036.567    2527.8583    487.28792    -33677.66    1.2994306     57.34031    56.801762    56.720702    184741.06          232 
  233000     100.3769    137.32716    78026.401    5046.9808     72979.42    9277.9127    12702.162    26992.625    2599.8326    484.97299   -33676.585    1.2972082    57.295471    56.805108    56.858992    185057.57          233 
  234000    102.06933    120.84637    78158.458     5132.077    73026.381    9370.7535    12745.288    27027.143    2493.8051    479.41807   -33677.485    1.2986902    57.390144    56.729301    56.776188    184846.39          234 
  235000    101.97985   -216.60759    78144.124    5127.5778    73016.546    9312.8808    12669.687    27099.886    2539.7835    487.12704   -33676.318    1.2972223    57.352069    56.708227    56.899307    185055.56          235 
  236000    101.88871    302.09779    78172.696    5122.9953      73049.7    9318.4177    12737.085    27079.567    2505.7025    474.58062   -33675.892     1.294899    57.347839     56.71795    56.995828    185387.59          236 
  237000    101.84457   -399.68141    78135.078    5120.7758    73014.302    9331.3096    12693.557    27033.454    2570.4079    481.14008    -33677.17    1.3010338    57.398485    56.676414    56.718555    184513.42          237 
  238000    101.19982   -673.28745    78142.018    5088.3578    73053.661    9276.6026    12724.288    27175.579    2477.2786    491.56155   -33680.215    1.2972629    57.336771    56.739008     56.88183    185049.76          238 
  239000    101.28019    -206.4172    78094.582    5092.3988    73002.183    9299.2998    12722.721    27115.494    2473.6943    489.16493   -33682.298    1.3004527    57.359935    56.769492    56.688935    184595.86          239 
  240000    102.23191   -10.339288    78163.837    5140.2517    73023.585    9362.2609    12686.864    26997.639    2572.5844    493.09884   -33676.085    1.2979256     57.14182    56.822277    56.963155    184955.28          240 
  241000    102.81124   -88.217438     78212.67    5169.3803    73043.289    9304.9543    12746.617    27055.899     2504.826    495.86442   -33670.776    1.2970742    57.336417     56.68926    56.940383    185076.69          241 
  242000    101.46742   -175.87454    78144.196    5101.8128    73042.383    9295.4073    12720.148    27071.965     2560.394    483.56766   -33678.708    1.2964584    57.352622    56.775628    56.864698     185164.6          242 
  243000     102.4397   -370.61233    78200.587    5150.6993    73049.888    9328.9274    12777.976    27031.248    2502.4795    487.50231   -33674.711    1.2988637    57.467528    56.798824    56.622768     184821.7          243 
  244000    101.15673    643.29138    78200.242    5086.1911    73114.051    9360.0225    12735.119    27048.859     2559.125    491.92165   -33676.623    1.2999253    57.413136    56.623288    56.805682    184670.76          244 
  245000    101.08462    -489.9836    78100.314    5082.5654    73017.749     9281.935    12772.091    27076.365    2497.2369    490.97813   -33677.012    1.2993664    57.143108    56.950518    56.770584    184750.19          245 
  246000    101.24666    198.07924    78192.475    5090.7131    73101.762    9340.9416    12709.289    27095.299    2552.3601    489.92635   -33677.678    1.2968835    57.575394    56.638615    56.763087    185103.89          246 
  247000    103.24348    488.83985    78272.758    5191.1136    73081.644    9370.6168    12807.437    26930.016    2568.4129    486.64759   -33680.797    1.2976308    57.233981    56.896098    56.810542    184997.29          247 
  248000    102.00623    719.24389    78262.712    5128.9041    73133.808    9404.2694    12688.853    27011.934    2617.1088    494.31096   -33682.587    1.2978492    57.462879    56.655173    56.815306    184966.17          248 
  249000    102.28728   -308.83449    78180.807    5143.0355    73037.772    9370.0428     12687.64    27095.564    2490.2912    486.29154    -33677.58    1.2967651    57.447138    56.855854    56.677623     185120.8          249 
  250000    102.95369   -48.531235    78256.461    5176.5426    73079.918    9318.2287    12764.735    27029.171    2584.6971    495.60206   -33690.179    1.2965469    57.357414    56.740963    56.890798    185151.95          250 
  251000    101.78324   -318.66446    78146.671    5117.6922    73028.979    9240.8939    12653.174    27238.425    2499.0406      491.275   -33682.126    1.2989443    57.435169    56.711812    56.738071    184810.22          251 
  252000    102.12058   -308.16553    78252.054    5134.6539      73117.4    9243.5061    12763.485    27134.023    2602.7297    486.66639   -33680.342    1.2970416    57.274666    56.814028    56.878023    185081.34          252 
  253000    102.06753   -41.584559    78115.161    5131.9866    72983.175    9324.0522    12664.655    27053.852    2551.9977    486.74172   -33678.803    1.2982503    57.333808    56.767951    56.812524    184909.02          253 
  254000    102.30653    299.81184    78217.041    5144.0033    73073.038    9380.4325    12770.042    27037.716    2492.3899    484.11679    -33684.37    1.2984086    57.347855     56.74131    56.818351    184886.48          254 
  255000    102.48741   -115.16001    78254.026     5153.098    73100.928    9368.6074    12754.801    27077.217    2490.0434    487.27164   -33676.688    1.2944831    57.472627    56.611048    56.997774    185447.14          255 
  256000    101.39849    -180.3046    78258.572    5098.3468    73160.225    9383.5518    12727.244    27054.633    2577.1618    502.87288   -33683.185    1.2964919    57.333975     56.91362    56.743805     185159.8          256 
  257000    102.40576    347.11187     78297.98    5148.9927    73148.987    9313.8417    12777.576    27118.425     2548.279    488.58564   -33681.701     1.298124    57.326373    56.689608    56.903952    184927.01          257 
  258000    102.78444    341.82914    78261.468    5168.0327    73093.435     9457.958    12712.082    27007.933    2521.8863    492.62246   -33682.998    1.2965495    57.274484     56.67376    57.040617    185151.58          258 
  259000    102.35156    64.357884    78258.969    5146.2677    73112.701    9316.5089    12750.487    27103.508    2541.4552     487.5985   -33682.472    1.2961178    57.361125    56.768904    56.877946    185213.26          259 
  260000    103.00026    230.94805    78306.653    5178.8842    73127.769    9339.2586    12744.329    27086.829    2555.0269    494.37683   -33679.644    1.2952774    57.330424     56.79604     56.91812    185333.43          260 
  261000    101.84688   -377.08844    78181.901    5120.8923    73061.009    9258.5726    12746.198     27170.37    2492.4622    484.53516   -33679.697    1.3003325    57.388403    56.611757    56.823939    184612.93          261 
  262000    102.68476    473.78611    78273.998    5163.0209    73110.977    9378.8299      12700.8    27024.746    2586.8113    499.84855   -33678.184    1.2964374    57.539574    56.632396     56.82421    185167.59          262 
  263000    103.72056   -180.78966    78361.433    5215.1012    73146.331    9430.7834    12769.392     27052.48    2492.9233    497.67306   -33680.767    1.2982477    57.328759    56.776155    56.809433    184909.39          263 
  264000    103.17664    69.829876    78306.542    5187.7528    73118.789    9366.6054    12844.285     26983.85    2545.4463    484.83556   -33682.422    1.2942394    57.411329    56.907727    56.771854    185482.06          264 
  265000     103.5903   -62.411073    78308.466    5208.5517    73099.914     9261.949    12772.556    27138.779    2526.0307    491.24746   -33677.868    1.2975811    57.272777    56.692569     56.97806    185004.39          265 
  266000    102.64284   -79.299164    78270.659     5160.913    73109.746    9234.4903     12778.18    27153.546    2530.0763    485.88725   -33679.213    1.2963055    57.406305    56.710145    56.883829    185186.44          266 
  267000    103.14123    134.23346    78289.697    5185.9724    73103.725    9373.8564     12752.19    27031.928     2542.185    491.83559   -33681.098    1.2969176    57.268011     56.84456    56.859511    185099.03          267 
  268000    102.49362   -373.06158    78264.698    5153.4103    73111.288    9378.0716    12736.339    27054.133    2531.5439    503.09004   -33681.837    1.2973796    57.494523    56.781735    56.677977    185033.12          268 
  269000    103.33485    748.07119    78321.408    5195.7078      73125.7     9301.028    12744.597    27069.868    2599.3671    501.81978   -33684.292    1.2976108    57.350191    56.771468    56.820768    185000.16          269 
  270000    103.65081   -867.48801    78359.652    5211.5941    73148.058    9348.9853    12715.588    27233.003    2440.3567    500.73835   -33680.253    1.2982974    57.192106    56.750924    56.968308    184902.32          270 
  271000    103.04361    94.407274    78318.534    5181.0638    73137.471    9321.3706    12714.364    27175.881    2514.1171    487.57358   -33677.143    1.2972484    57.336479    56.716085    56.905748    185051.84          271 
  272000    103.38362   -154.01328    78328.814    5198.1598    73130.654     9415.888    12746.749    27075.059    2493.6401    493.99282   -33679.482    1.2970523    57.285443    56.815373    56.865507    185079.81          272 
  273000    104.18754   -1008.6191    78368.124    5238.5813    73129.543    9302.3761    12738.234    27219.545    2460.0645    502.24141   -33679.263    1.2969802     57.26864    56.653293    57.048099     185090.1          273 
  274000    103.84746    261.72645     78346.61     5221.482    73125.128    9305.2939    12787.334    27066.806    2563.2927    496.92795   -33681.983    1.2960962     57.50194    56.767452    56.741052    185216.33          274 
  275000    103.32708   0.89039093    78386.093     5195.317    73190.776    9310.5999    12763.673     27152.26    2550.0372    491.04088   -33675.939    1.2957553    57.447969      56.6499    56.927185    185265.07          275 
  276000    103.31156   -309.17577    78323.797    5194.5368     73129.26    9310.6113    12730.284    27206.253    2463.0616    489.39243   -33672.339    1.2987772    57.383047    56.752634    56.756062    184834.01          276 
  277000    103.10963   -357.28021    78366.195    5184.3835    73181.812    9448.2254    12814.515    27032.271    2490.6372    492.00232   -33681.382    1.2943694    57.175701    56.951046    56.956736    185463.43          277 
  278000    104.35314    246.89492    78407.162    5246.9076    73160.255    9364.1341    12699.442    27106.851    2579.4696    491.53272    -33678.44    1.2960211    57.535641    56.664089    56.814554    185227.07          278 
  279000    103.12852    223.54694    78333.976    5185.3334    73148.643    9302.8177    12734.213     27126.07    2588.6216    498.58826   -33684.159    1.2950806    57.302867    56.660192    57.090699    185361.59          279 
  280000    103.30382    310.10219    78356.579    5194.1473    73162.432    9337.2094    12736.212    27064.705     2610.259    498.73725   -33678.671    1.2979069    57.398145    56.611194    56.921037    184957.94          280 
  281000     104.6064    381.19092    78395.914    5259.6414    73136.272     9432.203    12711.257    26979.466    2620.6033    495.54454   -33681.718    1.2957585    57.443255    56.830642    56.750653    185264.61          281 
  282000    103.15152    355.61737    78321.277    5186.4899    73134.788     9378.297    12749.136    27052.378    2530.1594    496.88737   -33676.848    1.2980648    57.278866    56.835226    56.807825    184935.45          282 
  283000    103.77232     268.5523    78398.695    5217.7039    73180.991    9379.7425    12743.954    27091.314    2560.4535     502.3233   -33683.775    1.2967793    57.348068    56.805288    56.825454    185118.78          283 
  284000    103.80769    25.562512    78354.896    5219.4824    73135.414    9368.7245    12736.335     27064.33    2547.8749    495.98041   -33680.012     1.296898    57.350215    56.779479    56.843951    185101.83          284 
  285000    104.16842   -112.90232    78440.417    5237.6198    73202.797     9408.704    12739.858    27074.407    2560.8709    504.27509   -33681.781    1.2954103    57.362729    56.873814    56.802447    185314.41          285 
  286000    104.10141    14.498999     78428.37    5234.2504     73194.12    9440.7649    12719.683    27084.211    2537.1602    489.18569   -33673.249    1.2955811    57.469622    56.595481    56.968114    185289.98          286 
  287000    103.07486   -286.38746    78388.182    5182.6352    73205.547    9322.4305    12828.623    27070.662    2566.4405    506.34539   -33677.836    1.2976559    57.287763     56.74896    56.903269    184993.72          287 
  288000    104.22736    -321.1465    78463.437    5240.5833    73222.854    9419.4313    12775.601    27024.065    2583.4707     487.7694   -33673.524     1.296207     57.45686    56.808948    56.739244    185200.51          288 
  289000    104.18184   -257.08485    78426.479    5238.2948    73188.185    9326.8156    12781.033    27136.715    2530.4509    495.81326   -33681.383    1.2988423    57.327557    56.798952    56.761826    184824.74          289 
  290000    104.79764    135.86536    78427.959     5269.257    73158.702    9325.4825    12741.002     27138.35    2555.5823    485.77021   -33679.805    1.2970435    57.291158    56.997938    56.678093    185081.06          290 
  291000    103.78913    33.955514    78421.804     5218.549    73203.255    9291.4096    12830.255    27154.823    2517.4149    492.69759   -33676.842    1.2957502    57.377804    56.818481    56.827916     185265.8          291 
  292000    103.94543   -105.35375    78421.757    5226.4077    73195.349    9292.9813    12756.922    27185.208    2549.3476    497.64445   -33678.872    1.2977101     57.27438    56.805391    56.857648    184985.99          292 
  293000    105.12608   -244.51769    78498.816    5285.7714    73213.045    9371.2992    12826.923    27141.156    2462.8047    496.16306   -33672.874    1.2958314    57.356364    56.736762     56.92747    185254.19          293 
  294000    103.58069   -149.78868    78408.705    5208.0687    73200.636    9302.5525     12750.77    27135.611    2589.1889    497.12865   -33680.142    1.2960776    57.405111    56.824673    56.780347       185219          294 
  295000    103.92286    30.517125     78442.47    5225.2729    73217.197    9416.7682    12795.614     27116.18    2462.0774    508.30235   -33684.105    1.2976654     57.29706    56.821703    56.820785    184992.37          295 
  296000    105.07759    265.95182    78478.548    5283.3331    73195.215    9440.5583    12744.903    27052.797    2566.7116    487.49615   -33683.804    1.2976845    57.350026    56.763654    56.825525    184989.65          296 
[...]
13528000    773.11031    604.16646    148754.93    38872.221    109882.71    22133.151    20773.093     36488.57    6143.3256    2951.2368   -33493.849    1.0961008    64.756024    50.991467    66.326698    219011.06        13528 
13529000    770.28351    753.23787    148313.58    38730.089    109583.49    22301.617    20759.066    36368.405    5884.0991    2927.6071   -33507.356       1.1005    65.051508    51.066849     65.66441    218135.56        13529 
13530000    761.10182   -124.79865    147578.73    38268.431     109310.3    22032.601    20716.799    36495.674    5834.4813    2864.3522   -33503.481    1.1055967    65.362846    50.995064    65.141942    217129.98        13530 
13531000    766.35984    696.31931    147981.42    38532.806    109448.62    22219.561     21082.15    36208.837    5770.5867    2851.4211   -33513.096     1.116442     65.07116    51.183734    64.559455    215020.75        13531 
13532000    778.49064    1435.9447    148964.42    39142.746    109821.67     22313.57    20731.512    36447.207    6086.6387    2913.9162   -33516.259    1.1027907    64.679434    51.651103    65.159485    217682.47        13532 
13533000    767.95142   -515.79398       148041    38612.831    109428.17    22184.603    20671.453    36473.648    5846.0196    2894.3523    -33493.12    1.1112212    64.255648    51.913603    64.762487    216030.96        13533 
13534000    767.94851    1067.3477    148461.13    38612.685    109848.45    22233.294    20468.549     36722.74    5992.8856    3017.5641    -33492.26     1.099814    64.648706    51.599248    65.432583    218271.62        13534 
13535000    766.82718   -462.44534     148574.4    38556.304     110018.1    22294.533    20603.919    36665.937    6154.9857    2927.9226    -33495.17    1.0913993    64.193326    51.483756    66.553787    219954.51        13535 
13536000    762.77934    33.236742     147758.8    38352.777    109406.03    22382.855     20939.34    35783.844    6117.4206    2790.9854   -33487.829    1.0834015    64.114115    51.413864    67.219178    221578.23        13536 
13537000    767.90935    -1909.725    148639.27    38610.715    110028.56    21892.156    20957.258     36935.91    6002.2593    2902.6768    -33496.59    1.0887885    64.988118    51.133178    66.349288    220481.93        13537 
13538000    766.27514    52.600831    148491.17    38528.547    109962.62     21985.78    20597.355    36795.779    6311.6791    2915.0778   -33490.348    1.0793612    65.497871     51.43603    66.016896    222407.65        13538 
13539000    761.31613   -40.208274    147799.15    38279.206    109519.94    21922.815    20940.405    36309.143    6033.9824    2923.6465   -33498.271    1.0944005    65.003588    51.445333    65.592919    219351.33        13539 
13540000     766.2264    935.25636    148345.43    38526.096    109819.33    22032.479    20716.685    36741.902     6016.861    2930.3194   -33500.704    1.0922913     65.68265     51.03466    65.563507    219774.89        13540 
13541000    762.01514    895.72474    147845.38    38314.353    109531.03     22282.15    20542.281    36369.898    6112.5327      2860.97   -33492.306    1.0906381    65.566923    51.823545    64.777467    220108.03        13541 
13542000    763.16871   -84.086903    148016.07    38372.355    109643.71    22147.076    20638.292    36593.309    5975.8891    2905.1677   -33505.524    1.0898493    64.703973    52.110966    65.326597    220267.34        13542 
13543000    760.82756    831.54695    148250.36    38254.641    109995.72    22383.278    20742.142    36382.978     6145.155    2941.2831   -33484.244    1.0868327     65.06581    51.785353    65.553222     220878.7        13543 
13544000    773.07088   -288.67985     148386.7    38870.239    109516.46    22055.214      20815.2    36161.854    6266.2623    2842.8776   -33491.238    1.0858313     65.18287    52.075487    65.130942     221082.4        13544 
13545000    772.09234   -1177.4632    148848.89    38821.037    110027.85    22461.441    20839.411    36411.788    5993.3668    2897.6682   -33470.226    1.0920564    65.187332    51.721449    65.198498    219822.17        13545 
13546000    761.76084   -195.01483    147966.61    38301.567    109665.05    22061.985    20617.064    36634.442    5987.4667    2967.2483   -33476.751      1.10286     64.61281    51.426817    65.507022    217668.78        13546 
13547000    767.32639    868.38464     148107.5    38581.404     109526.1    21965.355    20648.573    36541.142    6080.9781    2947.6732   -33508.229    1.0967207    65.037997     51.96864    64.760766    218887.26        13547 
13548000    764.94157     737.1476    147817.22    38461.495    109355.72    22058.481     20899.94    36139.382    5948.3354    2890.5865   -33488.625    1.1001945    65.825164    52.274601    63.410967    218196.13        13548 
13549000    765.07225   -204.74771    148227.49    38468.065    109759.42    22275.398    20686.601    36540.522    5959.1397    2921.7745   -33493.597    1.1079272    64.711835    52.224508    64.113167    216673.25        13549 
13550000    769.58289   -429.97349    147859.82    38694.861    109164.96    21900.583    20732.281    36294.874     5924.074    2888.8168   -33470.385    1.0993389    65.597932    52.222551    63.743616    218365.95        13550 
13551000    765.27112   -354.82136    148216.31    38478.064    109738.25    22346.644    20987.112    36083.101    6065.4601    2828.7408   -33470.934    1.0966644    66.184943    52.241347    63.309551    218898.51        13551 
13552000    767.23058    464.46489       148205    38576.587    109628.41    22050.901    20873.459    36366.783    6067.8022    2876.6193   -33487.745    1.0986361    65.156226    52.269987    64.158525    218505.66        13552 
13553000    757.52453     859.2847    147746.88    38088.564    109658.31    21942.751    20826.073    36413.768    6199.0444    2892.9016   -33484.582    1.0921387    65.884013    51.807228    64.397399    219805.59        13553 
13554000    768.05836    165.46231    148236.26    38618.208    109618.05    22124.755    21050.975     35990.61    6254.4667     2851.695   -33495.723    1.0934423    65.987208    51.460899    64.652237    219543.55        13554 
13555000    752.48621   -1781.2649    147457.78    37835.236    109622.54    22323.848    20759.535    36416.701    5864.0211    2885.2489   -33485.719    1.0942203    66.013043    50.895328    65.298634    219387.45        13555 
13556000    768.55939   -155.64049    148467.02      38643.4    109823.62    22155.012    21035.636     36227.76    6101.4284     2950.004   -33495.648    1.0979524    66.078662     51.01352    64.861428    218641.72        13556 
13557000    767.38698   -439.13646    147797.66     38584.45    109213.21    21959.723     20535.36    36538.313    5925.0053    2890.8601   -33516.836    1.1034095    65.787533    51.718682    63.942373    217560.38        13557 
13558000    774.82242    505.50821    148416.46    38958.307    109458.15    22667.547    20704.541    36200.481    5632.3742    2906.0832   -33487.163    1.1089041    66.139306    51.295619      63.8091    216482.37        13558 
13559000    771.59063   -693.20456    148125.35    38795.811    109329.54    22106.596    20729.129    36374.949    5861.8368    2913.7071    -33494.23    1.0978091    65.542436    51.566057    64.699842    218670.26        13559 
13560000    767.12703    1046.8493    148132.92     38571.38    109561.54    21580.525     20768.04    36946.994    5974.6176    2918.3691   -33504.684    1.1019796    64.827525    51.381126    65.400328    217842.69        13560 
13561000    773.99632     414.5205    148084.64     38916.77    109167.87    22053.615    20811.506     36292.91     5803.616    2861.3216   -33505.347    1.1059583    65.176335    51.645714    64.484235    217058.99        13561 
13562000    771.98669    78.370851    148114.71    38815.725    109298.99    21977.889     20646.09    36557.323    5962.5033    2833.4024   -33499.945    1.0965816    64.961622    51.540181    65.384197    218915.03        13562 
13563000    767.02372   -253.11063    148142.12    38566.186    109575.93    22178.881    20568.675    36596.575     5991.618     2896.821   -33492.095    1.1121248     64.96617    51.436507    64.595802    215855.45        13563 
13564000    765.56028    240.49451    148088.53    38492.604    109595.92    22200.324    20893.047    36314.618    6025.2661    2825.7834   -33495.534    1.1020826    65.149335    51.381262    65.071024    217822.33        13564 
13565000    775.25632     978.6804    148660.49    38980.123    109680.36    22625.204    20683.462    36132.938    6022.6083    2827.9113   -33486.883     1.093001    64.798443    51.381522    65.966654    219632.19        13565 
13566000    774.03727   -109.82275    149098.83    38918.829       110180    22327.349    20847.388     36655.77    6054.2885     2953.128   -33497.352    1.0986665     65.57151    51.029024    65.300758    218499.61        13566 
13567000    758.72621    12.244483    148250.47    38148.984    110101.48    22500.024    20680.775    36447.248    6192.4004    2917.1421   -33495.645    1.1011451    64.966341    51.683692    64.927706    218007.78        13567 
13568000    774.08995    366.50062    148815.11    38921.478    109893.63    22528.611    20876.935    36246.279    6048.6463    2865.5453    -33506.21    1.0967125    64.786068    51.650646    65.413347    218888.91        13568 
13569000    765.41913    1162.2656    148158.94    38485.507    109673.44    21986.668    20842.685    36665.702    5887.7751    2916.3922     -33488.8    1.1089692    65.337864    51.529298    64.295101    216469.66        13569 
13570000    773.99986    675.17279     148589.8    38916.948    109672.85    21930.317    20783.552    36606.197    6041.9818    2953.4349   -33503.962    1.1040677    65.639808    51.766769    63.988581    217430.69        13570 
13571000    764.17225   -1153.5714    148416.35    38422.813    109993.54    22145.782     20698.38    36762.803    6083.2333    2918.3255   -33493.456    1.1001352    65.933999    51.779997    63.914446     218207.9        13571 
13572000    763.70565    76.024069    147886.41    38399.352    109487.05    22132.832    20588.957    36500.958    6016.6644    2867.5155   -33481.657    1.1006997    65.999911    52.036114    63.503764    218095.98        13572 
13573000     766.0206   -419.69846    148651.45    38515.749     110135.7    22137.703    20928.399    36534.173    6215.6011    2944.0241     -33484.8    1.0876715    66.066276    51.706677    64.608897    220708.36        13573 
13574000    760.15457    285.41481    148082.68    38220.803    109861.87    22287.074    20778.125    36519.888    5984.3814    2952.4966   -33500.367    1.0904888    65.511544    51.836545    64.824837    220138.16        13574 
13575000    769.85199    555.65435    148608.67    38708.392    109900.28    22440.944    20925.573    36279.325    5981.0618    2891.5082   -33475.895    1.0936848    65.280618    52.857296    63.611431    219494.87        13575 
13576000    772.25505    474.39834    148720.88    38829.219    109891.66    22053.963    20552.583    36938.595    6104.2503     2921.411   -33521.854    1.0964462    65.828888    52.316356    63.573367    218942.07        13576 
13577000    769.58526   -711.73297    148156.57    38694.981    109461.59    22101.505    20757.837    36490.277    5892.9315    2881.8035   -33495.478     1.097587    65.804762    51.583128     64.43363    218714.51        13577 
13578000    772.26683    502.54328    148720.05    38829.811    109890.24    22219.859    21236.522    35975.798    6142.9519    2896.3429   -33493.751    1.0994877    65.779178     50.86588    65.254602     218336.4        13578 
13579000    777.87405   -1044.7514    149246.51    39111.744    110134.76    22302.819     20730.44    36923.174    5927.8238    2913.1834   -33497.419    1.1003629    65.545717    51.490903    64.640661    218162.76        13579 
13580000    772.24975    106.82605    148509.75    38828.952     109680.8    21943.723    20806.281    36727.131    5978.2424    2889.3368   -33508.215    1.1025364    66.156211    51.382611    64.052607    217732.67        13580 
13581000    764.22198   -1922.9177    148580.96    38425.314    110155.65    22564.949    21090.624    36409.592    5779.2166    2937.1094   -33485.655    1.0980303    65.970497    51.545228    64.293046    218626.21        13581 
13582000    767.12044    -182.8037    148053.16    38571.049    109482.11    22010.509    20901.196    36282.998    6031.3832    2916.8647   -33503.692    1.1051259    65.709391    51.131827    64.652605    217222.49        13582 
13583000    771.17955    -867.7686    148505.56    38775.142    109730.42    22534.536    20963.945    36113.306    5968.5943    2822.4061   -33486.455    1.0954501    65.882715    51.516182    64.566727    219141.15        13583 
13584000    760.18239   -324.85104    148043.29    38222.202    109821.09    22048.096    20748.564    36824.064    5896.6011    2925.6799   -33485.195    1.1068336    65.890723    51.087526    64.431025    216887.33        13584 
13585000    759.09333   -115.92053    148325.21    38167.443    110157.76    22308.279     21030.67    36507.086    6031.3033    2903.7447   -33487.857    1.1052437    66.254623    51.213087     64.01199    217199.33        13585 
13586000    771.74847   -961.53568    148535.69    38803.747    109731.94    22089.294    20661.892    36716.288    5947.7425    2929.9808   -33490.688    1.0968322    66.191454    51.238723    64.532148    218865.01        13586 
13587000    764.11311    43.256874    148084.42    38419.839    109664.58     22176.69    20628.643    36465.857    6139.2054     2896.324   -33503.781    1.1021834    66.593586    51.148914    63.943125    217802.41        13587 
13588000    766.48984    587.21797    147791.57    38539.342    109252.22     21924.36    20579.698    36301.363    6158.7216    2875.7989   -33473.606    1.0929883    66.504441    51.571194    64.038801    219634.74        13588 
13589000    766.77069    1419.1244    148222.31    38553.463    109668.84    22215.006    20751.609    36280.817    6142.7167    2911.1279   -33501.416    1.0938331    66.456947    51.419045    64.224549    219465.09        13589 
13590000    766.25763    314.96357    148220.32    38527.667    109692.65    22193.713    20593.232    36335.162    6313.2073    2919.6016   -33503.443    1.0950605    67.009641     51.48519    63.541694    219219.11        13590 
13591000    775.07022   -1133.6528    148598.26    38970.766    109627.49    21910.104    20556.232    36907.457    5956.4006    2937.8724   -33500.414    1.0961173    66.026599    51.604032      64.2772    219007.76        13591 
13592000    773.77512     478.1573    148612.17    38905.648    109706.52    22266.279    20675.727    36508.671    6005.7798    2917.1684   -33508.212    1.0875052    67.070803    51.198673    64.282535    220742.12        13592 
13593000    762.24376    423.89821    148019.79    38325.848    109693.94    22270.348    20947.553    36038.826    6238.4053     2864.556   -33504.084    1.0858404    67.146186    51.485206    63.950913    221080.55        13593 
13594000    766.26851    918.92193    148207.02    38528.214     109678.8    22277.427    20517.384     36489.23    6080.9654    2942.5601   -33500.342    1.1033552    66.376707    51.254632    63.951739    217571.08        13594 
13595000    772.41526    413.51191    148793.56    38837.274    109956.29    22280.366    20971.185    36353.019    6016.9824    2945.4142   -33483.812    1.0988308    66.694392    51.309061    63.841389    218466.93        13595 
13596000    777.19154    370.53802     148737.5    39077.427    109660.08    21987.495    20970.493    36377.592    6037.8643    2910.1975   -33505.894    1.0973491    66.899676    51.461582     63.54254    218761.92        13596 
13597000     768.6628   -225.15899    148163.64    38648.599    109515.05    22227.295    20550.609    36432.925    5995.8536    2954.8005   -33500.508    1.0972699     67.43029    51.009951    63.605275     218777.7        13597 
13598000     771.0544   -281.08737    148729.24     38768.85    109960.39    22282.531    20815.391    36520.035    6094.6819    2850.5705   -33497.356    1.0942565      67.9151    50.662182    63.759832    219380.18        13598 
13599000    774.74932    610.26264    148504.49    38954.631    109549.86    22227.028    20693.827    36293.531    6141.4752    2835.6496   -33487.342    1.0993643    66.447239    51.408458    63.923918    218360.92        13599 
13600000    764.35278    644.84993    148177.14     38431.89    109745.25     22375.45    20637.326    36382.312    6058.9588    2924.0659   -33498.932    1.0977361    66.606621    51.272736    64.034596    218684.79        13600 
13601000    763.62975   -1515.5994    148455.55    38395.536    110060.02    22472.157    20787.193    36660.775    5934.9342    2868.6212    -33501.55    1.0985648    65.944356    51.837379    63.924921    218519.83        13601 
13602000     769.8802   -407.28772    148354.63    38709.811    109644.82    22143.232    20523.931    36607.047    6039.3931    2960.2556   -33478.849    1.1048806    66.661772    51.157529    63.711053    217270.72        13602 
13603000    778.98936    803.47533    149286.77    39167.822    110118.95    22566.261    20793.654    36415.578    6087.8887     2928.387    -33496.79    1.1052316     66.61843    51.789067    62.955077    217201.71        13603 
13604000    766.75504    398.16324    148181.42    38552.677    109628.74    21906.756     20828.02    36409.196     6254.443    2916.9925   -33518.512     1.097068    66.580452    51.829279    63.410484    218817.96        13604 
13604116    767.91849    2555.9486    148406.28    38611.175    109795.11    22564.335    20995.456    35902.572    6118.2352    2911.9922   -33516.962    1.0986767    66.309296    51.838901    63.564761    218497.57    13604.116 
Loop time of 161864 on 32 procs for 13400000 steps with 16869 atoms

Performance: 7.153 ns/day, 3.355 hours/ns, 82.786 timesteps/s
97.7% CPU use with 32 MPI tasks x no OpenMP threads

MPI task timing breakdown:
Section |  min time  |  avg time  |  max time  |%varavg| %total
---------------------------------------------------------------
Pair    | 60464      | 64844      | 69642      | 704.0 | 40.06
Bond    | 17983      | 19063      | 20426      | 337.7 | 11.78
Kspace  | 37288      | 43497      | 48939      |1076.0 | 26.87
Neigh   | 7030.5     | 7035.9     | 7041.6     |   4.8 |  4.35
Comm    | 3472.6     | 3518.4     | 3594.2     |  59.2 |  2.17
Output  | 27.769     | 27.794     | 28.106     |   1.1 |  0.02
Modify  | 9972.2     | 20164      | 22210      |2482.5 | 12.46
Other   |            | 3713       |            |       |  2.29

Nlocal:        527.156 ave         557 max         468 min
Histogram: 2 0 0 2 2 3 9 3 7 4
Nghost:        7629.31 ave        7783 max        7526 min
Histogram: 3 1 6 7 6 4 3 0 0 2
Neighs:        233701.0 ave      250078 max      192624 min
Histogram: 1 1 0 0 1 4 6 7 8 4

Total # of neighbors = 7478429
Ave neighs/atom = 443.32379
Ave special neighs/atom = 5.6421839
Neighbor list builds = 738472
Dangerous builds = 0

write_data          ${myid}.data
write_data          Tg_CTE_rep_1_mech_hrate_50_temps_100-770.data
System init for write_data ...
PPPM initialization ...
  using 12-bit tables for long-range coulomb (../kspace.cpp:340)
  G vector (1/distance) = 0.37135428
  grid = 64 54 60
  stencil order = 5
  estimated absolute RMS force accuracy = 0.00039054625
  estimated relative force accuracy = 1.1761184e-06
  using double precision KISS FFT
  3d grid and FFT values/proc = 17204 6912
print "***ALL DONE***"
***ALL DONE***
Total wall time: 45:38:00
