thermo_style   custom step temp press density etotal ke pe epair ebond eangle edihed eimp elong lx ly lz vol density v_eengxy v_eengxz                v_eengyz v_etruexy v_etruexz v_etrueyz v_sxx v_syy v_szz v_sxy v_sxz v_syz f_sxx_ave f_syy_ave f_szz_ave f_sxy_ave f_sxz_ave                f_syz_ave v_dir
dump           6 all atom 10000 dump.${myid} #every dump_freq
dump           6 all atom 10000 dump.shear_L10_rep_1_3_full_xld_erate_2e8_IFF-RX0_mmorse 
dump_modify    6 scale no sort id

#-------------------Run-------------------
timestep       ${mytimestep}
timestep       0.1
run            ${steps}
run            6000000
PPPM initialization ...
  using 12-bit tables for long-range coulomb (../kspace.cpp:342)
  G vector (1/distance) = 0.18362938
  grid = 18 16 15
  stencil order = 5
  estimated absolute RMS force accuracy = 0.024859324
  estimated relative force accuracy = 7.4863116e-05
  using double precision KISS FFT
  3d grid and FFT values/proc = 1690 320
Generated 45 of 45 mixed pair_coeff terms from sixthpower/sixthpower mixing rule
Neighbor list info ...
  update: every = 1 steps, delay = 0 steps, check = yes
  max neighbors/atom: 5000, page size: 100000
  master list distance cutoff = 14
  ghost atom cutoff = 14
  binsize = 7, bins = 10 9 8
  1 neighbor lists, perpetual/occasional/extra = 1 0 0
  (1) pair lj/class2/coul/long, perpetual
      attributes: half, newton on
      pair build: half/bin/newton/tri
      stencil: half/bin/3d/tri
      bin: standard
WARNING: Inconsistent image flags (../domain.cpp:815)
Per MPI rank memory allocation (min/avg/max) = 21.43 | 21.52 | 21.84 Mbytes
   Step          Temp          Press         Density         TotEng         KinEng         PotEng         E_pair         E_bond        E_angle        E_dihed        E_impro         E_long           Lx             Ly             Lz           Volume        Density        v_eengxy       v_eengxz       v_eengyz      v_etruexy      v_etruexz      v_etrueyz        v_sxx          v_syy          v_szz          v_sxy          v_sxz          v_syz        f_sxx_ave      f_syy_ave      f_szz_ave      f_sxy_ave      f_sxz_ave      f_syz_ave        v_dir     
         0   299.70114      178.50787      1.2366459     -1281020.3      17923.325     -1298943.6     -45068.453     -1275961.6      12654.047      8557.9703      874.42968     -27039.722      65.116357      62.931441      54.298524      222508.09      1.2366459      0              0              0              0              0              0             -47.680028      83.593637     -90.17554      -58.631569      14.70146       36.776701      0              0              0              0              0              0              3            
      2000   298.04632      626.05719      1.2385398     -1281332        17824.36      -1299156.3     -44991.687     -1276122.1      12568.377      8525.7519      863.38419     -27039.523      65.086318      62.88895       54.277161      222167.83      1.2385398      0.00031075087 -2.2269782e-05  4.0008821e-05  0.0003107026  -2.227003e-05   4.0008021e-05 -62.642616     -129.4059       1.7427797     -9.7785092     -17.06734      -41.803084     -0.71884648    -12.556467      6.2324679      19.464651      22.15412       14.308175      3            
      4000   297.23697      841.40351      1.2381058     -1281255.3      17775.957     -1299031.2     -45107.328     -1276042.6      12732.662      8507.1658      878.90395     -27038.507      65.059997      62.909624      54.300306      222245.72      1.2381058      0.00095269973 -0.0010751401   7.8973007e-05  0.0009522462  -0.0010757185   7.8969888e-05 -40.523294     -146.39534     -68.847        -47.700846      39.949075     -18.451462      0.61842943    -1.0531435      9.0497712     -11.531266     -1.1353598     -16.946246      3            
      6000   301.46848      602.05403      1.2373186     -1280903        18029.019     -1298932       -45040.498     -1276060.8      12769.391      8499.9039      900.00074     -27037.49       65.056147      62.973432      54.283006      222387.1       1.2373186      0.0026037028  -0.0028824441   0.00011252839  0.002600319   -0.0028866064   0.00011252206 -64.842338     -60.945958     -57.221077      53.386598      32.958689      53.117569     -12.526979      27.102809     -22.861546     -23.21719      -11.708223      12.370133      3            
      8000   300.84258      494.90458      1.2350156     -1281097.5      17991.587     -1299089.1     -45014.897     -1276105.8      12671.158      8474.2064      886.24055     -27038.804      65.122106      63.054331      54.259444      222801.8       1.2350156      0.0050484151  -0.0047591877   0.00013608522  0.0050357146  -0.0047705487   0.00013607596 -40.30676      -91.148954     -18.982904     -65.224729     -18.964583     -20.842345      30.612863      16.657916      46.573388      7.927601       8.5479559     -8.7432788      3            
     10000   293.95987     -333.69493      1.236636      -1281347.9      17579.973     -1298927.9     -45075.44      -1276025.6      12685.507      8581.0547      906.57859     -27037.654      65.132868      63.102021      54.138445      222509.85      1.236636       0.0077225716  -0.0075285227   0.00014244127  0.0076929052  -0.0075570051   0.00014243113  80.801962      30.744333     -10.111379      18.842253      43.541461     -4.9577345      0.89349886     13.926519      2.0511432      3.0891886      8.6451757     -14.709606      3            
     12000   299.83878     -219.37903      1.2365117     -1281212.8      17931.556     -1299144.3     -45118.054     -1276048        12665.899      8453.1003      902.79428     -27037.649      65.192345      63.100431      54.095852      222532.22      1.2365117      0.010842635   -0.010435312    0.00012772987  0.010784275   -0.010490142    0.00012772172  0.97052445     44.041466      21.673748     -2.4596416      5.5157996      25.538133      1.1082174      17.796351     -37.63577       0.20607663    -10.54315      -7.7964512      3            
     14000   299.86484      537.47031      1.2379149     -1281079.6      17933.115     -1299012.8     -45057.844     -1275947.4      12621.858      8486.2845      884.3854      -27036.975      65.209095      63.03814       54.074038      222279.98      1.2379149      0.01329745    -0.012041225    0.00012100817  0.013209815   -0.012114308    0.00012100084  56.571611     -82.215275     -137.73388     -56.25226      -58.445772     -17.77052       9.6678061      15.981695     -7.595048      -8.5428384     -15.779428     -13.994689      3            
     16000   297.88114     -569.71508      1.2387131     -1281432.9      17814.481     -1299247.4     -45130.434     -1276092.6      12496.243      8575.2425      904.12659     -27039.043      65.220245      62.961336      54.095863      222136.75      1.2387131      0.01562345    -0.011795371    0.00013686466  0.01550266    -0.011865488    0.00013685529  69.453389      21.620016      82.105737      61.845632     -46.198013      18.142828     -7.5659919     -27.460175     -17.749389      30.788945     -9.9693188      11.259722      3            
     18000   301.31003     -326.80712      1.2387281     -1281156.6      18019.542     -1299176.1     -45083.65      -1276121.7      12591.248      8548.4881      889.47671     -27037.503      65.228478      62.898207      54.142667      222134.06      1.2387281      0.015814961   -0.0098762917   0.00020478941  0.015691208   -0.0099253858   0.00020476845 -19.118558      105.60401      12.855744      82.008499     -18.251562      28.22529      -28.900548      6.6986714     -1.0303464      2.233597      -6.8276446      14.163628      3            
     20000   296.99936     -721.30845      1.2376118     -1281379.5      17761.747     -1299141.3     -45111.131     -1276018.2      12604.498      8506.0699      877.44366     -27038.554      65.281794      62.876685      54.165779      222334.42      1.2376118      0.01351682    -0.007895443    0.00029421421  0.013426283   -0.007926777    0.00029417094  22.909625      141.44159      54.90852      -53.239704      30.672933      36.752736      35.365471      35.400103      8.7850723     -2.4672033      23.342034      20.188357      3            
     22000   298.49367     -318.52278      1.2373841     -1281378.7      17851.113     -1299229.9     -45071.328     -1276093        12546.107      8517.7411      870.66597     -27036.506      65.329816      62.791599      54.209282      222375.34      1.2373841      0.010955753   -0.0065522947   0.00036890503  0.010896174   -0.0065738553   0.000368837    46.86243       74.377494     -24.41696       39.848956     -54.166765      13.271528     -2.9663307     -8.8004128      9.4497529      22.089389      0.51525919     2.957524       3            
     24000   299.25451     -817.19341      1.2336949     -1281134.6      17896.614     -1299031.2     -44980.719     -1276035.9      12657.123      8466.5531      861.72836     -27037.607      65.362714      62.758374      54.37279       223040.32      1.2336949      0.008286741   -0.0054094747   0.00043449468  0.0082525944  -0.0054241588   0.00043440032 -9.6344637      91.395322      166.64551     -18.368299      6.4655057      45.450096     -6.3296359      12.004455      2.2646564      26.83921      -9.0626578     -13.613655      3            
     26000   294.61213     -1024.7261      1.2305055     -1281348.6      17618.981     -1298967.5     -45076.437     -1276016.3      12643.745      8581.5355      899.9313      -27038.448      65.412244      62.792674      54.442687      223618.42      1.2305055      0.0055893233  -0.0044220461   0.00049389379  0.0055737609  -0.0044318523   0.00049377187  111.01024      99.000533      101.48033     -18.939925      3.2092953     -58.463504      19.351556      16.898125      20.780219      7.7288625     -13.711984     -12.263115      3            
     28000   296.91439      268.61105      1.2335684     -1281398.1      17756.666     -1299154.7     -45021.483     -1276101.4      12592.332      8494.9738      880.8185      -27037.385      65.376606      62.772944      54.354191      223063.19      1.2335684      0.0032318058  -0.0028486491   0.00055021497  0.0032265947  -0.0028527143   0.00055006365 -60.250042     -60.201363      38.800361     -6.9511266     -36.312577      8.3797311     -12.522289     -4.4378466     -4.1626657     -0.09330624    -12.254174     -0.94341208     3            
     30000   296.21154     -578.69968      1.2363794     -1281232.2      17714.632     -1298946.9     -45058.48      -1276080.2      12669.161      8630.8308      891.84978     -27038.452      65.351077      62.711617      54.304851      222556.04      1.2363794      0.00085642607 -0.0010974325   0.00059898957  0.00085605954 -0.0010980352   0.00059881024  75.295845     -3.5210291      104.13542     -65.229491     -12.621963      4.6220323     -4.8774516      23.975709     -1.5018778      14.936437     -10.926424      17.039209      3            
     32000   297.53153      376.63444      1.2378758     -1281260.7      17793.573     -1299054.2     -45126.394     -1276018.4      12622.066      8579.98        888.46418     -27037.75       65.285815      62.657622      54.340213      222287.01      1.2378758     -0.0014176165   0.00068332273  0.00063853943 -0.0014186222   0.00068308937  0.00063833565 -46.89228      -32.881593     -34.713581      29.598766      53.955986     -47.289081     -6.7344372      14.602001     -7.1661661      6.7525416      17.859087     -2.0959741      3            
     34000   297.32753      284.93453      1.2391707     -1281437.6      17781.373     -1299218.9     -45080.309     -1276047.5      12512.93       8531.0358      864.93897     -27037.282      65.2635        62.599966      54.352005      222054.73      1.2391707     -0.0033589375   0.0019564377   0.00067275412 -0.0033645914   0.0019545264   0.00067252792  12.395639     -22.613704     -76.394908      50.966297      29.826229      8.6081894     -29.026029     -22.655585      19.310214      10.488827      19.429291      2.2336506      3            
     36000   298.84125     -498.1513       1.2404254     -1281137.4      17871.9       -1299009.3     -45055.326     -1276008.2      12625.19       8548.5685      880.54062     -27037.5        65.24613       62.617278      54.296465      221830.11      1.2404254     -0.0047195093   0.0029226418   0.00070622271 -0.0047306814   0.0029183792   0.00070597345  3.5357291      113.09964      34.790174      35.139572      42.603171     -6.5650191      23.377625      12.444323      11.344278      3.3730637     -2.2652303      24.548248      3            
     38000   296.73061     -67.420143      1.2408191     -1281254.5      17745.675     -1299000.2     -45068.124     -1276032.1      12629.75       8580.4196      889.89719     -27038.243      65.254284      62.648911      54.245051      221759.73      1.2408191     -0.0055200533   0.0030242316   0.00074404015 -0.0055353451   0.0030196678   0.00074376349  91.147943     -29.859818     -40.794086      65.87917       14.576635      7.8041598     -6.9708577     -5.2990397      3.753289       13.185919      0.12968466    -5.190065       3            
     40000   298.87046     -92.967013      1.2387168     -1281287.1      17873.646     -1299160.7     -45131.744     -1276029.9      12624.084      8496.9401      879.93714     -27036.142      65.311502      62.748078      54.20371       222136.08      1.2387168     -0.0058889236   0.002787263    0.00078496832 -0.0059063317   0.0027833858   0.00078466039  83.164871     -31.926757     -22.978466      19.869924      24.235261     -54.099074     -7.471883       19.929679     -13.986042     -4.1729133     -12.072231      6.6080361      3            
     42000   297.72199      515.71576      1.2382479     -1281189.1      17804.963     -1298994.1     -44988.294     -1276017.7      12659.364      8454.4581      898.10589     -27037.12       65.227762      62.863668      54.194017      222220.2       1.2382479     -0.0042389985   0.0016078409   0.00083479539 -0.0042480085   0.0016065497   0.00083444714 -59.917939     -69.178311     -27.66845      -2.2323032      58.413683      34.255902      24.994595     -4.7338257     -21.231012     -21.52726      -5.0036748     -15.382835      3            
     44000   298.82121      296.91177      1.2374587     -1281211.6      17870.701     -1299082.4     -45118.589     -1276007.6      12593.086      8553.1667      897.55751     -27037.568      65.125542      62.984067      54.209874      222361.94      1.2374587     -0.00054187794  4.092415e-05   0.00088141654 -0.00054202481  4.0923313e-05  0.00088102832  27.249707      24.237525     -141.74099     -22.847422     -27.370859      20.081957      26.34645       10.221885      9.4804167     -15.886121     -3.3386187     -4.2146006      3            
     46000   296.75088      94.320772      1.2385026     -1281444.6      17746.887     -1299191.5     -45113.843     -1275976.4      12481.883      8527.8026      889.06014     -27038.023      64.995572      63.031433      54.231706      222174.5       1.2385026      0.0033809596  -0.00096895041  0.00091785159  0.003375257   -0.00096942015  0.00091743062  22.237112     -61.148056      10.239788      37.052953      12.029616      27.839998     -10.157587      15.896091     -27.976381      21.769432     -7.6466363      3.9121412      3            
     48000   299.34844      150.75784      1.237814      -1281080.7      17902.232     -1298983       -45199.114     -1275895.4      12657.966      8549.6959      903.88125     -27039.106      64.986123      63.032227      54.269081      222298.1       1.237814       0.0055855662  -0.0013983571   0.00095269403  0.0055700248  -0.0013993358   0.00095224051 -60.566498     -79.35913       94.099015     -39.264824     -47.080555      12.555312     -37.929799      30.251741     -6.1239556     -5.0599573     -1.0883135      25.330423      3            
     50000   297.9321      -363.40779      1.237877      -1281211.3      17817.529     -1299028.8     -45114.565     -1276028        12646.982      8570.334       896.43985     -27038.919      65.049004      62.989456      54.250674      222286.79      1.237877       0.0072507267  -0.0021295828   0.00098541222  0.0072245666  -0.0021318536   0.00098492702  54.937476      18.199386      37.330022     -28.342116     -14.547344     -32.343288     -13.428786     -22.315473     -17.58281       4.1839003      14.694767      16.047687      3            
     52000   295.77804     -95.904795      1.2384353     -1281554.2      17688.707     -1299242.9     -45139.578     -1276179.8      12623.273      8554.8226      898.43082     -27039.074      65.071318      62.987454      54.209344      222186.57      1.2384353      0.0075956217  -0.0037131588   0.0010134699   0.0075669202  -0.0037200697   0.0010129567   55.922257     -16.604628     -10.164968      51.426783     -32.218654     -41.19779       2.5718054     -24.641708      4.1118709     -2.5435842     -4.0401646      4.6592894      3            
     54000   298.96428     -374.11832      1.2392431     -1281400.4      17879.258     -1299279.7     -45167.132     -1276066.4      12551.872      8536.3629      865.63513     -27037.538      65.005257      63.015885      54.204598      222041.75      1.2392431      0.0076776597  -0.0047480572   0.0010453734   0.0076483365  -0.0047593651   0.0010448274  -66.67365       30.552958      149.84331      19.208535     -43.464216     -7.3166062     -22.768277     -22.532969      14.763852      1.651155      -8.2446328      18.916506      3            
     56000   296.13799     -665.3555       1.239012      -1281239.4      17710.234     -1298949.7     -45151.923     -1275991.4      12595.96       8670.3187      927.39222     -27036.649      64.994985      63.039463      54.202995      222083.16      1.239012       0.0076138148  -0.0046329275   0.0010866551   0.0075849761  -0.0046436927   0.0010860651   149.86702      114.57596     -62.19154       6.9971259     -94.657749     -20.726889     -2.8249274     -1.5187789      22.417526      5.7438712     -1.3956588      8.1670295      3            
     58000   298.08823     -827.63596      1.2383673     -1281165.5      17826.866     -1298992.4     -45154.536     -1275945.8      12588.537      8627.7526      891.6712      -27038.385      64.988212      63.028727      54.246105      222198.79      1.2383673      0.0065563572  -0.0044738624   0.0011317519   0.0065349577  -0.0044839001   0.0011311119   86.50559       187.42558     -22.35053      -20.28506      -34.212462     -75.225178     -11.293969      6.8366706      22.417079      7.1764825     -18.022282      11.426568      3            
     60000   298.59048     -381.92279      1.2394079     -1281445.9      17856.903     -1299302.8     -45138.225     -1276121.9      12552.408      8509.804       895.09901     -27038.922      65.029647      62.932093      54.249198      222012.23      1.2394079      0.0044784271  -0.0029136854   0.0011880247   0.0044684288  -0.0029179384   0.0011873196   118.26599     -61.530258      59.359244     -82.127181     -48.601012     -69.528162     -6.8820888      18.338428      26.788687      4.2053501     -0.70734059     15.52081       3            
     62000   298.73128      135.60153      1.2391925     -1281204.2      17865.323     -1299069.5     -45053.659     -1276087.8      12703.124      8506.4379      862.3147      -27037.75       65.059304      62.900021      54.261549      222050.82      1.2391925      0.0015135963  -0.00031383023  0.0012403678   0.0015124519  -0.00031387948  0.0012395992   27.935103     -16.958974     -52.195603      66.647866     -15.035593     -17.1874       -18.611771      12.626668      18.232767      19.237996      13.616776      4.5868124      3            
     64000   299.98678      805.75406      1.2392536     -1281178.4      17940.407     -1299118.8     -45039.552     -1276086.1      12577.237      8533.4731      896.16039     -27039.458      65.073579      62.888107      54.257247      222039.87      1.2392536     -0.0021000087   0.0018302074   0.0012771247  -0.0021022168   0.0018285346   0.0012763098  -83.117798     -78.852168     -82.959124      52.642649     -2.4237448     -13.299912      6.4858735     -15.156993     -20.846689     -14.240816      11.058301     -4.8844706      3            
     66000   299.02499     -37.478504      1.2366587     -1281338.4      17882.888     -1299221.3     -45086.467     -1276098.5      12585.925      8492.2944      885.49238     -27037.23       65.081556      62.96405       54.298859      222505.77      1.2366587     -0.0045915726   0.0032955208   0.0013048385  -0.0046021462   0.0032901025   0.0013039879   32.721475     -68.013799      46.684853     -54.355441      26.178703     -90.177193      22.145307      10.420601      9.6787845     -6.5535085     -0.16430526     2.463501       3            
     68000   293.77879      406.42429      1.2370179     -1281515.7      17569.144     -1299084.8     -45178.89      -1275979.7      12569.104      8605.8537      898.80069     -27038.502      65.091363      62.976633      54.264072      222441.17      1.2370179     -0.006199382    0.0040787565   0.0013355396  -0.0062186779   0.0040704609   0.0013346486  -78.108687      61.249437     -106.68357     -82.945168      19.579022     -149.67437      20.388416      23.495949     -7.0147866      9.5765624      8.8220815     -11.727195      3            
     70000   298.52622      630.40962      1.2385911     -1281147.4      17853.06      -1299000.4     -45042.474     -1276121.3      12709.056      8557.9501      896.36485     -27039.603      65.085711      62.892377      54.272464      222158.64      1.2385911     -0.0060589372   0.0042414709   0.0013749344  -0.006077367    0.0042325012   0.0013739901  -121.29122     -73.841811      3.5042672      27.559919      2.4922124     -14.206719      6.865102       0.50513152    -16.544953      0.58475526     16.625624     -9.528186       3            
     72000   298.26144      56.795         1.2359502     -1281252.7      17837.225     -1299089.9     -45048.396     -1275985.5      12615.576      8448.2857      880.11788     -27039.013      65.163853      62.831649      54.375713      222633.33      1.2359502     -0.0051317624   0.0042792503   0.0014159628  -0.0051449751   0.0042701204   0.0014149613  -35.84327      -17.416371      35.995382     -59.009413      13.816368     -24.092118      6.1865269     -4.11361        34.342154      4.5704626      9.2876412     -10.114206      3            
     74000   295.7635       334.17692      1.2349175     -1281540.3      17687.838     -1299228.2     -45025.505     -1276178        12697.612      8400.3192      877.42866     -27038.499      65.200342      62.784631      54.43146       222819.5       1.2349175     -0.0036872      0.0030401004   0.0014651581  -0.0036940145   0.0030354886   0.0014640858  -25.273345     -63.492578     -12.815507     -32.681548     -3.4062638     -18.556505      3.4669011     -17.181126      13.615061      4.1010482     -0.7823926      19.411382      3            
     76000   297.66965      327.51098      1.2400885     -1281141.5      17801.833     -1298943.4     -45106.27      -1276088.1      12712.903      8638.8747      899.18576     -27037.933      65.148952      62.668604      54.347682      221890.38      1.2400885     -0.0018492959   0.0021738768   0.0015145977  -0.0018510079   0.0021715174   0.0015134518  -73.984563     -21.194621     -4.3759658     -6.0014956      40.382467     -11.663825      38.98385      -8.311471       10.035126      2.2812832      2.5430946      11.573097      3            
     78000   298.52688      1107.5904      1.2458085     -1281305.2      17853.099     -1299158.3     -45122.385     -1276072        12581.621      8596.9548      857.50164     -27038.438      65.051083      62.624228      54.21793       220871.58      1.2458085      0.0002361958   0.00037570993  0.0015624062   0.00023616791  0.00037563937  0.0015611869  -19.984865     -87.446357     -229.24857     -67.211911     -8.3569744     -35.236115      10.242458      23.29396      -11.547905      11.606681      8.8030018     -8.8960945      3            
     80000   294.0498       388.36672      1.2444868     -1281463.8      17585.352     -1299049.2     -45099.606     -1276062.1      12631.798      8588.4366      892.3064      -27039.244      64.981523      62.712404      54.25722       221106.17      1.2444868      0.0018130189  -0.0027726944   0.0015961809   0.0018113773  -0.0027765454   0.0015949084  -51.748967      30.263627     -96.568433     -26.742149      11.404787      25.25292       2.4431369      0.18772639    -1.2276613     -7.5588459     -3.5615595      11.759858      3            
     82000   301.13719      27.315916      1.2398008     -1281105.4      18009.206     -1299114.7     -45117.964     -1276047.5      12621.032      8539.8102      889.96162     -27037.43       65.003577      62.863845      54.312658      221941.87      1.2398008      0.0023915825  -0.0058447843   0.0016255608   0.0023887272  -0.0058619319   0.0016242411   31.30708       27.130248     -66.740683      36.258666     -53.41322      -46.43831       19.930086      30.361344     -13.957621      5.5865362     -13.431787      29.862785      3            
     84000   297.98916      148.31479      1.2365231     -1281389.2      17820.941     -1299210.1     -45082.673     -1276026.4      12477.207      8551.8939      869.91279     -27037.848      65.020386      62.931987      54.383596      222530.17      1.2365231      0.0020498009  -0.0076959188   0.0016615423   0.0020477029  -0.0077256852   0.0016601634  -36.813656     -5.0488104     -3.2215221     -51.596948      10.796638     -22.733882     -11.204436      13.181326      14.405864     -20.060914     -0.68607813     15.90833       3            
     86000   296.82976     -143.88459      1.2358438     -1281071.4      17751.604     -1298823       -44991.987     -1276052.9      12730.53       8574.9149      916.4549      -27037.379      65.038468      62.986971      54.350874      222652.49      1.2358438      0.0018006592  -0.0080335578   0.0017038178   0.00179904    -0.0080660007   0.001702368    58.966914     -52.96213       37.732533     -16.078332     -11.769207      2.0168507     -11.529623      21.234449      18.812267      8.8772129     -37.671996     -15.548844      3            
     88000   298.07019     -178.5491       1.2361787     -1281199.2      17825.787     -1299025       -45104.967     -1276072.4      12670.341      8591.9234      890.11871     -27037.823      65.003261      63.038699      54.32097       222592.18      1.2361787      0.00090786739 -0.0063206099   0.0017534968   0.00090745552 -0.0063406695   0.0017519612  -57.460116      109.46207      2.2725142     -23.975174      42.961566      21.292969     -28.071318     -1.5086779     -34.229756     -3.2107019     -23.30147       22.707655      3            
     90000   296.82481     -115.91154      1.2377643     -1281347.4      17751.308     -1299098.7     -45020.443     -1276111.5      12631.929      8506.1276      895.1676      -27038.281      65.005223      62.978067      54.301971      222307.02      1.2377643      0.00068905906 -0.0040858428   0.001797053    0.00068882177 -0.0040942127   0.0017954402   11.006433      25.226804     -0.99902652    -56.653793     -29.01987      -19.91036      -27.944309      4.0982159      4.8589549      1.7615814      2.8567247     -7.4570657      3            
     92000   299.18008      626.08789      1.2395401     -1280937.9      17892.163     -1298830       -45062.826     -1275952.1      12710.067      8586.508       888.3427      -27038.658      65.095252      62.885825      54.228612      221988.55      1.2395401      0.0019397828  -0.0013753332   0.001839697    0.0019379039  -0.0013762799   0.0018380068  -31.817264     -177.75168      19.25388       10.291514     -28.032364      52.750681     -28.019039     -4.6275602     -0.98743505     4.1471237      23.90396      -7.0391257      3            
     94000   297.88886      147.38109      1.2413918     -1281167.6      17814.943     -1298982.5     -45068.553     -1275945.2      12545.825      8606.2718      879.12079     -27038.152      65.230851      62.809334      54.100968      221657.42      1.2413918      0.0043370152   0.00076706661  0.0018901713   0.0043276375   0.00076677256  0.0018883871  -25.812969      50.264741     -69.251938      39.770147      28.163298      10.005185     -18.447109      28.526473      3.3762389     -8.738595       22.512913     -25.193609      3            
     96000   297.86227      193.18449      1.2389466     -1281337.8      17813.353     -1299151.1     -44978.31      -1276083.2      12521.428      8486.9429      902.06344     -27039.004      65.453161      62.765363      54.061476      222094.89      1.2389466      0.006164036    0.0022980564   0.0019425399   0.006145116    0.0022954199   0.0019406556  -124.42162      53.097172      12.601194      8.5319271      91.320905     -1.1547056     -46.52696      -28.353247     -15.915845      23.405393     -2.2997003     -10.594925      3            
     98000   299.9645      -688.97716      1.2326247     -1281016.4      17939.075     -1298955.5     -45094.124     -1275985.7      12664.185      8571.287       888.82655     -27037.358      65.645223      62.852108      54.104989      223233.97      1.2326247      0.0064451378   0.0031381059   0.0019871833   0.0064244567   0.0031331923   0.0019852115   62.976088      55.949867      90.505877      48.767776     -4.6818826      23.824956      13.14258       1.422779       24.288415     -8.5192247     -5.2598255      28.457775      3            
    100000   299.45518     -633.938        1.2334406     -1281074        17908.615     -1298982.6     -44938.586     -1275982.1      12541.541      8515.3764      881.20009     -27038.133      65.603815      62.878711      54.080434      223086.3       1.2334406      0.0055588288   0.004008158    0.0020302961   0.0055434355   0.0040001467   0.0020282378   76.823071      98.783916      17.094316     -58.149794      24.678529      57.008627     -5.8103292      7.7318351     -20.675123     -19.801387     -10.973362      4.0292455      3            
    102000   298.31014     -764.50225      1.2334436     -1281284.1      17840.137     -1299124.3     -45002.191     -1276041.3      12565.612      8480.8332      872.77326     -27038.456      65.568736      62.837671      54.144574      223085.75      1.2334436      0.0048743066   0.0050257378   0.0020702442   0.0048624656   0.0050131509   0.0020681042   33.023261      95.93237       103.43394     -53.018904      44.307596      26.567495     -15.789708     -10.834524     -30.361444     -17.361252      16.471723     -22.258698      3            
    104000   298.37205     -508.19734      1.2337281     -1281236.9      17843.84      -1299080.7     -45014.124     -1276047        12543.427      8542.3737      894.5851      -27039.24       65.502988      62.805699      54.214009      223034.32      1.2337281      0.0042966411   0.0045029658   0.0021025467   0.0042874369   0.0044928578   0.0021003394  -12.74331       93.29067       73.931925      5.5448222      29.094396     -11.797474      8.9539511     -4.6548243      31.878868      5.2747085      8.8175389     -6.4896685      3            
    106000   301.39526     -468.62352      1.2375926     -1281037.2      18024.64      -1299061.8     -45067.655     -1276069.5      12691.045      8469.0157      915.26481     -27037.601      65.408132      62.738935      54.180694      222337.87      1.2375926      0.0037055777   0.0029383529   0.0021354718   0.0036987289   0.0029340444   0.0021331949   43.674187      65.918772      32.856878      53.822871     -3.9628652      24.638407     -5.0788789     -17.427351      8.8570678      2.0870828      12.069128      5.7498788      3            
    108000   296.98792      116.95193      1.2370591     -1281349.8      17761.063     -1299110.9     -45018.368     -1276100.1      12602.442      8519.8757      885.30526     -27038.728      65.321033      62.79671       54.2264        222433.76      1.2370591      0.0026949218   0.00053165562  0.0021642942   0.002691297    0.00053151434  0.0021619554   46.759198     -119.36632      37.056661     -61.909393      85.063468     -60.4064        24.072986     -17.998906      30.872563     -4.3806347     -4.0172804      16.093189      3            
    110000   299.11585      144.04828      1.2339152     -1281243.5      17888.322     -1299131.8     -44987.737     -1276086.8      12586.566      8461.4066      894.76359     -27038.983      65.243934      62.983135      54.267699      223000.49      1.2339152      0.00167141    -0.0023709308   0.002197274    0.0016700148  -0.0023737459   0.0021948636   28.853206     -89.418002      16.77772       58.2608       -54.705027     -25.937864     -11.609072     -8.471806       26.910876      2.8025081      1.5783051      12.450826      3            
    112000   298.10766      163.20742      1.2329656     -1281198.2      17828.028     -1299026.2     -44944.094     -1276093.8      12617.846      8508.2986      885.47695     -27038.577      65.178222      63.138398      54.230564      223172.25      1.2329656      0.0013789956  -0.0046040485   0.0022364285   0.0013780457  -0.0046146798   0.0022339314  -58.73515       21.633376     -12.509202     -46.379411     -40.482951      12.338227      8.1532666      12.112403      46.451778     -5.5930615     -23.377265     -20.182435      3            
    114000   299.24567      135.28041      1.2331387     -1281201.9      17896.085     -1299098       -45091.947     -1276077.3      12604.945      8568.2219      898.10506     -27038.827      65.124876      63.250164      54.171475      223140.92      1.2331387      0.00083003097 -0.0050644183   0.0022811096   0.00082968669 -0.0050772859   0.0022785118   40.387016     -30.48308      -51.025797     -109.93899     -4.1442369     -28.483176      49.289422      38.758038      40.440026     -9.5483779      9.8999977     -28.562489      3            
    116000   297.94491      508.42918      1.2383373     -1281504.6      17818.295     -1299322.9     -45025.763     -1276190.3      12541.857      8484.0468      867.25052     -27039.076      65.015201      63.177158      54.097499      222204.16      1.2383373      0.00024193876 -0.0057845649   0.0023271783   0.0002419095  -0.0058013603   0.0023244746  -83.396186     -121.26578      50.112208     -37.346539     -36.967486     -50.654778     -14.298398      30.526063     -22.307971     -14.604644      1.3979919      25.37529       3            
    118000   300.44747      164.45445      1.2405392     -1281267.1      17967.958     -1299235.1     -45200.844     -1276108.7      12571.294      8601.4456      901.75063     -27039.378      65.048921      63.082593      54.054397      221809.76      1.2405392      0.0016086273  -0.0056691663   0.0023614934   0.0016073348  -0.005685297    0.0023587094   47.219542     -48.541971     -48.667614     -28.280354     -52.728726      22.899751     -4.5283551     -4.5812817      27.434811      3.1394348      9.37038       -13.151389      3            
    120000   299.63701     -142.12876      1.242967      -1281160.3      17919.489     -1299079.8     -45086.297     -1276125.3      12579.427      8653.8406      898.46611     -27037.979      65.141149      62.961994      53.975622      221376.51      1.242967       0.0030254544  -0.0054632702   0.0023977771   0.0030208869  -0.0054782485   0.002394907   -51.764274      71.699584      23.268281      1.194181       18.631233      36.183195     -28.220241     -19.196924     -52.109792     -1.5036567      16.606021     -14.395775      3            
    122000   295.38626     -0.7682385      1.240639      -1281451.4      17665.278     -1299116.7     -45147.008     -1275950        12575.188      8530.7331      874.42359     -27038.242      65.275995      62.898837      54.019379      221791.91      1.240639       0.0051692592  -0.0052283967   0.0024255107   0.0051559445  -0.0052421126   0.0024225739   22.417587     -46.320586      24.136524      16.31146       7.1123913     -12.028419      14.745862      13.984908      0.73391925    -12.492644     -31.647505      25.312535      3            
    124000   294.61569      631.72592      1.2371606     -1281330.1      17619.194     -1298949.3     -45064.445     -1276005.1      12549.708      8677.7865      892.73729     -27038.393      65.344563      62.897998      54.115139      222415.5       1.2371606      0.0072328681  -0.004400196    0.0024564841   0.0072068363  -0.0044099054   0.0024534719   34.739522     -114.76707     -112.00134      10.838976      24.346636     -7.7946896      6.7104544      9.7636093     -20.5481        0.85933027    -4.8748706     -4.0424368      3            
    126000   297.01664      430.80936      1.2354328     -1281135.1      17762.781     -1298897.8     -45151.52      -1276090.6      12795.048      8665.426       883.77434     -27038.379      65.312535      62.879856      54.23304       222726.57      1.2354328      0.0086163309  -0.0029276742   0.0024977074   0.0085794222  -0.0029319682   0.0024945933   4.8296252     -35.896121     -99.888778      18.539804     -8.2411005      35.338823      13.518757     -21.013123     -15.148655     -6.872832      -8.1237117      2.6901826      3            
    128000   298.65805      114.74955      1.2366423     -1281406.1      17860.944     -1299267.1     -45092.022     -1276181.6      12518.745      8602.6756      885.18513     -27038.72       65.233276      62.799674      54.315088      222508.73      1.2366423      0.0090022545  -0.0020888504   0.0025403003   0.0089619757  -0.0020910351   0.0025370791   45.372419     -75.033101     -5.2203113      9.7592131      75.319963      8.7268856      8.5172696     -25.17555       7.4092895      14.483377      14.455774     -1.6060044      3            
    130000   296.41779      275.63608      1.2393979     -1281179.9      17726.967     -1298906.9     -44984.926     -1276008.6      12576.951      8619.3103      890.42047     -27036.878      65.104934      62.761108      54.334528      222014.02      1.2393979      0.0084923207  -0.0018828766   0.0025821832   0.0084564638  -0.0018846514   0.0025788551  -36.523722     -77.107567      29.844813     -41.67551       5.3125873      10.285337      1.9273513      28.421569     -4.4621263      17.126092     -17.555466     -7.7346025      3            
    132000   298.02552     -467.18591      1.2404853     -1281153.9      17823.116     -1298977       -45160.639     -1276012        12633.961      8661.1001      900.52914     -27037.978      65.056745      62.70737       54.373665      221819.4       1.2404853      0.0073347751  -0.0019108108   0.0026222545   0.0073080064  -0.0019126388   0.0026188224   70.569824      72.481733     -1.0387216     -19.291745     -62.265007      79.5588       -11.618168      13.608436     -0.38771579     0.79966918    -4.4459962     -1.4036047      3            
    134000   297.50399      1060.0891      1.2402397     -1281339.8      17791.926     -1299131.8     -44991.686     -1276106.6      12547.301      8531.2839      887.99531     -27038.687      65.103012      62.62155       54.420263      221863.33      1.2402397      0.0068700117  -0.0013967955   0.0026643368   0.0068465207  -0.001397772    0.0026607937  -48.350348     -145.8524      -128.03784      5.1140221      14.099886     -37.852163     -32.157389     -41.751972     -30.627967      3.5006616      4.4779579      19.876969      3            
    136000   302.2539      -115.51994      1.2341077     -1281065.1      18075.99      -1299141.1     -45205.07      -1276042.5      12611.177      8602.7961      892.464       -27037.852      65.235629      62.656127      54.549365      222965.72      1.2341077      0.00614331    -0.0010878574   0.00270075     0.0061245168  -0.0010884496   0.0026971095  -45.692546     -17.871338      98.679057     -25.377298     -59.146512     -14.965159      1.6299645      14.337051     -27.101545      5.0064579      15.978948      1.8183046      3            
    138000   297.15955      67.814732      1.2332781     -1281247.5      17771.328     -1299018.8     -45108.692     -1275985.4      12623.133      8556.5075      895.59457     -27036.88       65.247218      62.621825      54.606258      223115.7       1.2332781      0.0053984875  -0.0011383131   0.0027382522   0.0053839679  -0.0011389614   0.00273451     111.12517     -97.923048     -33.816109     -13.872108      0.61103928    -29.131168     -5.8447636     -7.7273123     -4.4568958      2.8535078      18.951189     -3.7220303      3            
    140000   294.76258     -357.47345      1.2373456     -1281326.9      17627.979     -1298954.9     -45104.924     -1276115.7      12765.602      8604.9937      895.15011     -27038.295      65.23184       62.532776      54.517103      222382.25      1.2373456      0.0042003924  -0.0006894554   0.0027858453   0.0041915954  -0.00068969318  0.002781972   -16.497752      67.499289      57.661455     -14.937023     -16.148933      13.733221     -20.104449     -25.366196      5.4318945      13.209297      3.4979404     -7.9400417      3            
    142000   298.1617      -511.64865      1.2421913     -1281197.5      17831.26      -1299028.8     -45161.828     -1276058.1      12726.043      8569.8099      895.30172     -27037.7        65.255064      62.476255      54.334222      221514.76      1.2421913      0.0017895809  -6.0630274e-05  0.0028380134   0.0017879815  -6.0632112e-05  0.0028339939   31.518864      66.163133      57.846401     -114.30923     -10.067661      6.7719828     -58.731455     -59.377296     -54.658334      1.4896872      12.577296      30.073777      3            
    144000   294.81708     -122.29867      1.2428274     -1281593.5      17631.238     -1299224.7     -45118.124     -1276085        12503.817      8589.8104      884.74814     -27037.636      65.4091        62.502137      54.156087      221401.37      1.2428274     -0.0013781745   0.00031068238  0.0028871357  -0.001379125    0.00031063413  0.0028829759   23.867086      78.774836     -65.466183     -38.491763      29.909208     -14.065053     -42.466116     -48.409274     -41.825316     -3.2260173      21.450133      6.2750331      3            
    146000   295.75031     -1065.9293      1.2402185     -1281320.5      17687.049     -1299007.6     -45140.151     -1276046.9      12554.24       8715.4147      909.78022     -27037.769      65.630783      62.551583      54.043948      221867.13      1.2402185     -0.0035311952  -0.00031603451  0.0029348439  -0.0035374446  -0.00031608446  0.0029305456   124.37229      82.713113      116.93047     -3.548513      -67.408548      11.541476      18.416818     -3.5824968     -16.798848     -13.075888     -1.2417943      14.910168      3            
    148000   299.43858     -625.61336      1.2378537     -1281141        17907.622     -1299048.6     -45050.375     -1275990.8      12537.009      8581.0887      874.41384     -27036.355      65.660241      62.627871      54.056971      222290.98      1.2378537     -0.004411662   -0.0017077844   0.0029807188  -0.0044214221  -0.0017092443   0.0029762853   1.7341862      141.8802       46.55643      -69.074953      6.7299612     -3.0721603     -0.43975091     4.7101028     -21.691491     -0.86552003     19.652639      0.18506539     3            
    150000   297.55089     -225.03541      1.2367618     -1281175.8      17794.731     -1298970.6     -45093.159     -1275913.5      12556.309      8601.537       878.24906     -27038.685      65.581398      62.654458      54.146757      222487.23      1.2367618     -0.0043030101  -0.0030121543   0.0030213194  -0.0043122947  -0.0030166999   0.0030167644   118.1914      -68.38105       18.594787      56.552667     -20.363544     -35.172125      21.271063      24.737735      36.019644     -6.2344674     -10.360264     -4.3071406      3            
    152000   295.8268      -310.07263      1.2399441     -1281399.2      17691.623     -1299090.9     -45109.207     -1276094.9      12619.605      8616.1128      877.50857     -27037.547      65.435644      62.619514      54.158294      221916.22      1.2399441     -0.0037673323  -0.0043607532   0.0030642397  -0.0037744465  -0.0043702891   0.0030595545   89.850146      33.171451     -28.767269      1.8074331     -25.382752      43.354631      26.753971     -21.185709      22.388781      5.1043299      12.715565      1.1619267      3            
    154000   301.54713     -335.68585      1.2435332     -1281055.8      18033.722     -1299089.5     -45173.982     -1276068.8      12671.591      8612.0468      869.64293     -27038.405      65.306625      62.62057       54.107753      221275.72      1.2435332     -0.0031755819  -0.0055884031   0.003108532   -0.0031806348  -0.0056040766   0.0031037105   20.50552      -68.0967        149.63129      96.611488      28.519294     -30.119765     -12.75136       11.1991        13.454857     -12.246358     -7.8187197     -20.747541      3            
    156000   295.98397      93.852769      1.2427556     -1281236.7      17701.023     -1298937.7     -45158.381     -1276013.3      12685.044      8654.6513      894.26052     -27037.871      65.287701      62.704648      54.084684      221414.17      1.2427556     -0.0034465808  -0.0062738001   0.0031538684  -0.003452534   -0.0062935631   0.0031489054   7.4158051      62.653552     -98.598252     -3.4624065      20.638943      78.358335      5.3694699      10.386075     -4.5849296     -6.8857791      4.653726      -2.1978904      3            
    158000   297.4465       254.02173      1.2393443     -1281275.9      17788.488     -1299064.4     -45077.679     -1276087        12543.741      8646.1567      910.37744     -27038.936      65.284995      62.78087       54.169952      222023.61      1.2393443     -0.0036279906  -0.007724336    0.0031953979  -0.0036345877  -0.0077543232   0.0031903035  -26.149906      44.488479     -95.55483      -43.573171      1.0833262      36.651991      22.759846      38.181256     -4.8275092     -2.6438616      4.5754503      10.483156      3            
    160000   302.82763      13.097196      1.2393582     -1280835.5      18110.301     -1298945.8     -45133.26      -1276008        12655.907      8617.6887      921.83975     -27038.397      65.212766      62.779357      54.230649      222021.12      1.2393582     -0.0032261948  -0.0092797879   0.0032337776  -0.0032314102  -0.0093231134   0.0032285602   21.46397      -14.556775     -10.888415     -16.653056     -1.6018078      21.867579     -12.015564      16.795594     -34.081115     -11.729757      7.1073118      2.0486504      3            
    162000   297.1371       367.29754      1.2364766     -1281158.8      17769.984     -1298928.8     -45089.161     -1276011.9      12612.518      8652.4808      907.32283     -27039.031      65.214416      62.790789      54.345765      222538.55      1.2364766     -0.002924979   -0.010475443    0.0032676208  -0.0029292651  -0.010530696    0.0032622938  -121.54166     -7.9630051      17.855392      87.290853      0.2590226      59.775083      9.4068768      5.9820341     -1.2680266     -8.9624643      14.393405      18.513924      3            
    164000   297.14176      379.64357      1.2370933     -1281320.1      17770.263     -1299090.4     -45077.628     -1276031.2      12576.298      8529.8505      912.32092     -27038.565      65.199079      62.748187      54.368338      222427.61      1.2370933     -0.0030614366  -0.011264384    0.0033100379  -0.0030661324  -0.011328308    0.0033045718  -20.21664       18.556397     -113.74191      31.284237     -24.388422      1.0433187      12.207518      26.939673     -18.942638     -5.9666138     -11.101271     -13.830019      3            
    166000   298.20937      359.49002      1.2392805     -1281272.5      17834.111     -1299106.6     -45052.056     -1276091.2      12670.634      8489.5711      876.49998     -27038.521      65.160134      62.622255      54.414025      222035.04      1.2392805     -0.0032493323  -0.011939269    0.003351481   -0.0032546229  -0.012011114    0.0033458773  -62.005227     -78.655371      31.384618      37.764333     -60.50762       46.784192     -4.9337632     -34.970659     -7.951769       3.7018024     -20.369324      1.0469405      3            
    168000   297.89225      220.76591      1.2398444     -1281122.5      17815.146     -1298937.7     -45038.357     -1276103.7      12677.342      8617.1472      909.93797     -27038.578      65.157535      62.575401      54.432174      221934.07      1.2398444     -0.0034839017  -0.011787662    0.0033925505  -0.0034899846  -0.011857687    0.0033868088   18.757305     -88.201052      2.336429       91.607052      76.110902     -19.31626      -38.432045     -0.55683752    -22.71754      -7.737235       20.622564      10.346068      3            
    170000   296.82638      565.74315      1.2382972     -1281457.5      17751.403     -1299208.9     -45051.82      -1276141.7      12561.457      8528.4265      894.71881     -27039.269      65.169662      62.603388      54.465683      222211.36      1.2382972     -0.0030811208  -0.012179807    0.0034268114  -0.0030858772  -0.012254589    0.0034209532  -42.931943     -25.269026     -103.7708      -10.572349      11.223962      5.0963805      4.0070252     -22.338754      31.869557     -0.50094331    -12.587229      7.3917295      3            
    172000   297.57283     -211.9992       1.2389897     -1281172.3      17796.043     -1298968.4     -45119.019     -1276070.2      12674.956      8638.1535      907.73092     -27038.261      65.115271      62.64034       54.448573      222087.16      1.2389897     -0.0016921689  -0.011000353    0.0034489083  -0.0016936023  -0.011061304    0.0034429745   71.853832     -61.811916      54.400541      72.828417      1.2963269      36.141821      3.9714275     -7.7391176      29.518048      14.36251      -0.86822531    -10.910187      3            
    174000   298.93844      687.83613      1.2379461     -1281152.2      17877.712     -1299029.9     -45066.85      -1276089.5      12536.45       8678.5478      911.49873     -27038.855      65.118303      62.722101      54.420904      222274.38      1.2379461      7.8950232e-05 -0.0096396438   0.003471238    7.8947116e-05 -0.0096864059   0.0034652271  -94.736487     -85.461283     -28.887218      7.3773055     -26.259845     -64.355755     -19.923511      21.609084      28.260051     -3.2289813     -9.0368293     -2.9153166      3            
    176000   295.91235      202.45836      1.2358555     -1281347.2      17696.74      -1299044       -45119.258     -1276072.1      12701.478      8551.9125      893.96936     -27038.432      65.19411       62.855199      54.334277      222650.39      1.2358555      0.001900207   -0.006964488    0.0035043437   0.0018984039  -0.0069888533   0.0034982178  -50.755073      80.978645     -91.76585      -62.269921      40.005641     -41.75796      -6.5250801      5.890599       16.57697       11.705159     -35.931925      12.170891      3            
    178000   299.72493      833.19805      1.2381019     -1281029.3      17924.747     -1298954       -45040.527     -1276040.2      12688.928      8510.005       927.75195     -27039.677      65.202406      62.890338      54.198494      222246.42      1.2381019      0.0029535981  -0.0029493892   0.0035578129   0.0029492448  -0.0029537472   0.0035514988  -73.041924     -76.14359      -104.08586      70.594074     -63.642955     -7.7954701      10.987007      0.39551674     16.027243      15.955698     -8.7163788      2.3855164      3            
    180000   297.1273       293.3002       1.2425217     -1281281.6      17769.399     -1299051       -45087.92      -1276188.5      12763.983      8558.8021      902.61601     -27038.555      65.102391      62.87387       54.102834      221455.85      1.2425217      0.0025879167   1.5091764e-05  0.0036130324   0.0025845738   1.509165e-05   0.0036065211  -114.91119      9.8634149      15.891845     -38.335961     -64.923427     -21.384542     -6.5081841      3.2252931     -26.919228     -14.484858     -3.8715611      17.926227      3            
    182000   297.30493      495.01455      1.2448422     -1281310.4      17780.022     -1299090.5     -45117.647     -1276127.1      12709.822      8537.013       907.40262     -27038.078      65.064301      62.843943      54.05933       221043.04      1.2448422      0.0022445211   0.0016765408   0.0036598382   0.002242006    0.0016751369   0.0036531573  -61.573524     -31.257121     -57.641403      15.336343      27.400745      69.002184     -14.898729      8.7186985     -10.026713     -6.891423      -6.7048419     -11.369126      3            
    184000   299.47147      112.98171      1.2414549     -1281001.6      17909.589     -1298911.2     -45109.8       -1276007.6      12708.65       8589.4879      908.01933     -27038.285      65.195487      62.811175      54.125978      221646.16      1.2414549      0.0024136888   0.0028567702   0.0036985841   0.0024107805   0.0028526974   0.0036917611   37.153199      7.7146995     -79.211513      60.594797      48.928243      2.4882226      9.1418277      4.3397411      4.3709138     -9.3671135     -11.468606     -3.2617506      3            
    186000   298.6862       595.05258      1.2374636     -1281217        17862.627     -1299079.7     -45076.862     -1276158.2      12718.262      8543.4445      893.73527     -27038.378      65.334937      62.763832      54.225526      222361.04      1.2374636      0.0035468884   0.0035594597   0.0037375686   0.003540613    0.0035531398   0.0037306013  -40.922584     -60.621695     -79.33683      -11.829397      2.0285139      4.315609      -14.116494     -36.022005     -8.7918726     -7.416753       11.906919     -1.7873542      3            
    188000   299.93939     -468.86825      1.2358944     -1281228.6      17937.573     -1299166.2     -45039.87      -1276186        12677.647      8500.3377      881.68504     -27038.997      65.350052      62.734917      54.306837      222643.38      1.2358944      0.0051577074   0.003869156    0.0037792845   0.005144452    0.00386169     0.003772161    15.686851      15.063776      111.7736       16.4069       -15.21605      -27.708681     -23.168022     -2.6721653     -3.0616923     -20.494438     -6.1227752      31.9213        3            
    190000   297.99051     -145.85512      1.2374448     -1281085.7      17821.022     -1298906.7     -45081.353     -1276035.2      12719.367      8586.9724      903.59068     -27037.611      65.332051      62.684447      54.297424      222364.43      1.2374448      0.0071362467   0.0039539352   0.0038281483   0.0071109042   0.0039461389   0.0038208396   63.3533        13.321282     -32.338272      41.536755     -5.9136062     -3.4320689      7.748245      -7.2024898     -8.0021431      10.205603      3.3259756      19.876874      3            
    192000   296.245        260.68652      1.2388056     -1281317.3      17716.634     -1299033.9     -45024.152     -1276052.2      12645.795      8509.6878      886.93065     -27038.175      65.3345        62.580111      54.326168      222120.16      1.2388056      0.0085609148   0.0045366376   0.0038766844   0.008524478    0.0045263781   0.0038691895  -39.218538      19.094486     -59.118134      36.137751     -30.497922      15.081417      4.8163891     -24.348901     -1.8860102      11.461275      0.98548222    -16.306255      3            
    194000   297.07548     -50.859069      1.239953      -1281342.1      17766.3       -1299108.4     -45037.772     -1276104.3      12641.103      8479.2362      913.32584     -27039.138      65.312797      62.508303      54.356304      221914.62      1.239953       0.0091066634   0.0057448273   0.0039279471   0.0090654478   0.0057283887   0.0039202529  -21.201933     -33.405634      70.067453     -40.896671      34.685695     -4.3930003     -14.537573     -15.139239      19.361343     -6.0684718     -3.9399912      3.794205       3            
    196000   302.07897     -338.13533      1.2394052     -1281065.6      18065.528     -1299131.2     -45116.715     -1276105.8      12630.274      8569.1337      891.94567     -27039.653      65.327348      62.576521      54.30895       222012.71      1.2394052      0.0080795654   0.006276859    0.0039697361   0.0080471005   0.0062572416   0.0039618775   111.77912      11.13625      -20.130677      1.8886969     -57.459033      22.663153     -8.8398849     -7.7307463     -9.3975799      3.1708688      1.8125899     -3.938781       3            
    198000   297.93642     -602.58734      1.2367686     -1281257.1      17817.787     -1299074.9     -45130.351     -1276082.4      12537.653      8679.8684      920.40318     -27039.013      65.363456      62.777232      54.22075       222486         1.2367686      0.00574177     0.0058191897   0.0039989392   0.0057253489   0.0058023236   0.0039909647  -8.8157664      120.66172      71.325533      8.1152362     -82.163179      30.0408       -15.51246       6.6866016     -8.8621277     -0.84751718    -17.258771      24.024677      3            
    200000   294.16554      100.02893      1.2357934     -1281435.2      17592.273     -1299027.5     -45055.395     -1276084.3      12621.07       8584.6076      906.51948     -27038.275      65.417713      62.929998      54.086913      222661.57      1.2357934      0.0031682729   0.0051842854   0.0040319793   0.0031632645   0.0051708933   0.0040238726   33.380377     -42.412464     -21.374206      20.461446      47.225567     -26.296632      4.3002889     -23.05718      -39.368833     -4.4488962      10.997334      7.8376538      3            
    202000   299.9497       107.94569      1.2344092     -1281121.6      17938.19      -1299059.8     -45077.333     -1276048.1      12624.629      8534.7983      906.22587     -27038.378      65.384502      63.012892      54.103798      222911.25      1.2344092      0.0016106131   0.0044784179   0.0040616853   0.0016093175   0.0044684196   0.004053459   -11.084788     -7.0869519     -14.641051     -18.413998      26.593603      32.63436       3.820395       17.157613      0.19141108     26.741646     -6.0438422      14.707393      3            
    204000   298.26607     -278.16029      1.23536       -1281223.5      17837.502     -1299061       -44965.449     -1275993.6      12550.712      8461.548       885.77346     -27039.133      65.310321      63.018037      54.119145      222739.69      1.23536       -0.00047472054  0.0037645151   0.0040916838  -0.00047483325  0.003757447    0.0040833356  -16.380918      50.979161      49.955532      21.086758      29.757132     -9.5408806     -15.902655      33.455114      17.88941       6.9769306     -12.886317     -11.818739      3            
    206000   295.79704      117.28399      1.235526      -1281443        17689.844     -1299132.8     -45111.53      -1276060.9      12639.227      8536.1631      864.23278     -27038.802      65.339204      63.011338      54.093705      222709.77      1.235526      -0.0030423752   0.0028105593   0.0041269899  -0.0030470127   0.0028066171   0.0041184973  -5.4441783     -41.93325       11.726028     -2.8009106      67.224487     -10.84349       18.620469      25.827665      39.440265     -5.3642102     -10.729975     -11.312959      3            
    208000   297.73834     -18.493293      1.2381498     -1281261.2      17805.941     -1299067.1     -45120.609     -1276063.8      12589.017      8631.5795      896.64757     -27039.124      65.327665      62.952088      54.039419      222237.81      1.2381498     -0.0050569107   0.0012409562   0.0041735897  -0.0050697401   0.0012401869   0.0041649044   37.894096     -61.428959      29.156361      58.18809       80.033552      26.869974      6.232922       10.198407     -12.60891      -28.231054     -2.2246197      12.361411      3            
    210000   295.41913     -288.46477      1.2400703     -1281133.1      17667.243     -1298800.4     -45159.584     -1275951.2      12800.295      8603.5907      906.49407     -27037.71       65.347894      62.872875      54.006985      221893.63      1.2400703     -0.0063106179  -0.00064120603  0.0042266087  -0.006330614   -0.00064141169  0.0042177016   135.28389      50.12048      -97.718289     -1.1858084      44.255106      77.142506     -4.6285426     -5.9187685     -10.338308     -17.096365      13.913801      19.019513      3            
    212000   295.48651     -362.96101      1.2401827     -1281332        17671.273     -1299003.3     -45043.185     -1276103.3      12711.414      8542.005       889.81238     -27038.305      65.353969      62.80251       54.057567      221873.52      1.2401827     -0.0065522121  -0.0029275234   0.0042779458  -0.0065737721  -0.002931817    0.0042688214   31.18609       10.35631       68.788674      93.869083      89.12073       2.1463731      29.38806      -12.818629     -17.808403      6.3997322      6.6920619      9.3297318      3            
    214000   297.36793      182.74587      1.2372027     -1281318.8      17783.79      -1299102.6     -45064.294     -1276102.5      12542.193      8626.9589      895.07024     -27037.863      65.352347      62.784606      54.204573      222407.94      1.2372027     -0.0064786383  -0.0051308782   0.0043204868  -0.0064997158  -0.0051440864   0.0043111803   31.328036     -0.34632292    -86.531888      31.646917      34.52514       31.053125      26.981353     -5.8925825     -26.493251     -7.6904881     -19.188828     -9.1835327      3            
    216000   297.39735     -584.34763      1.2335076     -1281134.2      17785.548     -1298919.7     -45098.42      -1276002.9      12694.764      8587.7038      899.12442     -27039.016      65.339998      62.813119      54.352539      223074.19      1.2335076     -0.0056287649  -0.0069578379   0.004354671   -0.0056446661  -0.0069821565   0.0043452169   36.747722      25.905387      114.97396     -6.0161291      58.735021      78.129171      36.339169      13.186596      21.133051     -5.5379596     -20.027085      11.062237      3            
    218000   298.38484      188.92187      1.2371717     -1281261.6      17844.605     -1299106.2     -45061.748     -1276145.3      12634.608      8570.1778      896.07454     -27037.668      65.204295      62.76865       54.342821      222413.52      1.2371717     -0.0049415139  -0.0077371913   0.0043944681  -0.0049537635  -0.0077672786   0.0043848406  -35.497075     -40.619664      18.689214     -24.241979      36.609627     -24.717163      39.031662     -7.5321771      30.7112       -12.114742     -27.335985     -14.301621      3            
    220000   294.63958      343.15594      1.2406869     -1281529.5      17620.623     -1299150.1     -45072.736     -1276078.3      12614.254      8493.5757      893.1415      -27037.785      65.08823       62.753814      54.298315      221783.35      1.2406869     -0.0039960611  -0.0076196143   0.004430274   -0.0040040666  -0.0076487918   0.0044204893  -103.98223      45.490347     -45.818949      56.907617      21.843403     -8.207467       12.687587      4.2322019      19.289568     -18.652204      28.075599      8.0173045      3            
    222000   299.05586      635.03038      1.2394287     -1281180.9      17884.734     -1299065.7     -45189.725     -1276056.1      12589.639      8684.8379      905.65011     -27038.296      65.134093      62.793247      54.281055      222008.49      1.2394287     -0.0029274773  -0.0081322152   0.0044650406  -0.0029317708  -0.0081654621   0.0044551019  -7.4304895     -76.936502     -108.66637     -3.9446784     -19.945154     -41.339601     -18.298742      17.472927     -32.196787      7.816206      -19.129375      8.1807293      3            
    224000   297.63994      96.273315      1.2355173     -1281228.9      17800.056     -1299029       -45079.019     -1276027.2      12665.853      8521.4281      889.94527     -27037.822      65.252553      62.812703      54.337209      222711.33      1.2355173     -0.0017885635  -0.0082646018   0.0044914022  -0.0017901649  -0.008298943    0.004481346    42.939755     -44.766194     -27.438242     -23.431231     -30.345291      3.6103452     -0.91853966    -19.820779     -2.4895802      5.7869757     -11.837791      0.32984269     3            
    226000   295.04324     -159.74848      1.2348043     -1281577.6      17644.763     -1299222.4     -45098.101     -1276085.8      12533.653      8539.9693      887.90551     -27038.606      65.237403      62.819021      54.37574       222839.93      1.2348043     -0.00039034517 -0.0080330456   0.0045165404  -0.00039042138 -0.0080654844   0.0045063715   53.168792      83.844814     -88.454062     -19.380112      40.766717      60.370509      1.1018388     -10.727225      6.1671147     -12.047274      11.098482     -0.85772477     3            
    228000   298.99459      1045.7471      1.2356528     -1281296        17881.07      -1299177       -45037.052     -1276181.2      12647.759      8500.3767      893.04948     -27038.333      65.165619      62.808279      54.407565      222686.92      1.2356528      0.00050343243 -0.0079818284   0.0045466658   0.00050330575 -0.0080138537   0.0045363609  -50.033635     -94.781352     -173.06599     -13.333422     -25.743173     -44.304624     -33.599133     -11.286555      39.991074      2.860655      -7.6117502      4.3635212      3            
    230000   298.73723      767.38953      1.2369993     -1281148.9      17865.679     -1299014.5     -45005.269     -1276058.1      12748.967      8412.9527      886.95398     -27037.833      65.172502      62.783966      54.363642      222444.51      1.2369993      0.00035206294 -0.0088796351   0.0045911501   0.00035200098 -0.008919294    0.0045806429   2.4232322     -120.11353     -115.57694      32.307367     -19.23394       38.5769        11.934676     -21.205382      8.7069242      7.971005       13.224626      17.876054      3            
    232000   296.95495      457.19399      1.23723       -1281302.1      17759.092     -1299061.2     -45048         -1276196.5      12782.032      8489.6946      911.60972     -27038.228      65.154912      62.794238      54.359287      222403.04      1.23723        0.00019978146 -0.0096639232   0.004632633    0.00019976151 -0.009710922    0.0046219354   15.632459     -163.35028      8.7422742     -17.024214      15.706213      11.078272      9.9154879     -11.482025     -36.408671     -2.3356484     -7.9575385      19.282945      3            
    234000   296.59742     -285.24869      1.2376158     -1281375.7      17737.71      -1299113.4     -45022.263     -1276090.7      12613.276      8510.1101      876.18274     -27038.453      65.12677       62.767774      54.388745      222333.71      1.2376158      0.00074562203 -0.01022852     0.0046643305   0.00074534419 -0.010281191    0.0046534862   35.128365      1.1523073      50.427798      19.235773     -27.208287     -46.572888     -30.461756      9.2578704     -3.5361824     -15.152244     -9.9922251     -2.5029667      3            
    236000   300.27326     -1021.6812      1.2332921     -1281167.3      17957.54      -1299124.8     -45113.138     -1276013.3      12581.884      8527.1186      892.58771     -27038.039      65.243216      62.741457      54.504861      223113.16      1.2332921      0.0016424277  -0.010469977    0.0046846369   0.0016410804  -0.010525173    0.0046736981   154.79992      54.516288      101.24934      20.489786     -19.641195      34.473314      33.890669      2.6700348      0.46153377     17.912725      4.3212993      43.713615      3            
    238000   298.84848     -767.08549      1.2331952     -1281175.2      17872.332     -1299047.5     -44947.518     -1276026.9      12546.919      8485.0563      894.92291     -27038.342      65.198138      62.674973      54.604693      223130.7       1.2331952      0.0013863105  -0.010313023    0.0047187221   0.0013853504  -0.01036657     0.0047076238  -10.24167       71.726732      171.68975     -19.221594     -43.571404      33.763089     -8.4347836     -22.516741     -8.9081195      31.22554       2.4801526     -2.1062095      3            
    240000   300.4059      -556.32571      1.2346848     -1281027.2      17965.472     -1298992.6     -45096.197     -1276017.4      12628.417      8590.7281      901.81263     -27039.335      65.116256      62.572346      54.696959      222861.5       1.2346848     -0.0001153808  -0.0094520902   0.0047658764  -0.00011538746 -0.0094970447   0.0047545556   59.349565      86.096113      23.663431     -14.361369      54.900976      25.401566     -0.088343614   -6.429301      -21.847094     -13.778068      3.9961601     -7.558419       3            
    242000   296.58537     -235.06309      1.2380062     -1281299.5      17736.989     -1299036.5     -45101.015     -1276008.7      12631.71       8548.4551      893.06182     -27037.909      64.98719       62.489993      54.730587      222263.6       1.2380062     -0.00055341547 -0.0073440115   0.0048056885  -0.00055356867 -0.0073711116   0.004794178   -28.663016      12.326343      87.789975      11.394056      81.651041      70.154146     -36.37244      -47.610427     -19.29909      -6.642273      -17.199386      14.715288      3            
    244000   297.04836     -376.45886      1.2401488     -1281255        17764.678     -1299019.6     -45058.907     -1275969.2      12574.659      8555.5124      878.3305      -27038.425      64.855144      62.546419      54.697877      221879.59      1.2401488     -0.00084775617 -0.0052825272   0.0048487418  -0.00084811572 -0.005296529    0.0048370245   139.21059     -23.043334     -1.7331736      17.717118     -22.102025     -95.93777      -13.982664     -46.014108     -10.99767       6.0022999     -6.5403932      17.297061      3            
    246000   299.09659     -44.042857      1.237418      -1281125        17887.17      -1299012.1     -45148.06      -1275940.6      12607.378      8589.565       879.59587     -27037.526      64.816307      62.767446      54.65828       222369.24      1.237418      -0.00071741762 -0.0026077248   0.004889431   -0.00071767508 -0.0026111309   0.0048775165  -51.594744      35.054365      29.928307     -68.920853     -23.366102      7.8629238      4.7080423     -20.001719     -14.285072     -6.5226309     -4.4792912      4.385862       3            
    248000   295.51952     -556.57701      1.2357365     -1281229.3      17673.247     -1298902.5     -45113.712     -1275941.9      12739.776      8532.2913      880.99015     -27038.185      64.807535      62.887623      54.635458      222671.83      1.2357365     -0.00048765996 -0.00013245538  0.004929436   -0.00048777891 -0.00013246415  0.0049173261   101.76865     -8.2316841      75.648534     -12.072584      47.764331      21.59954      -34.282466      15.780713      7.0992981     -12.7236       -1.8206117     -2.9374242      3            
    250000   299.067       -575.86106      1.2359621     -1281371.7      17885.401     -1299257.1     -45051.87      -1276109.4      12581.994      8451.2838      870.91466     -27036.725      64.848552      62.845984      54.627104      222631.18      1.2359621      0.00050648161  0.0011376523   0.0049704566   0.00050635339  0.0011370057   0.0049581447   40.098732      86.34339       48.605244      79.153143     -27.138805      7.5713014      1.4616317      20.056584      2.9727814     -16.648914      24.075988      23.943728      3            
    252000   300.86676     -154.15055      1.2375112     -1281037.8      17993.033     -1299030.8     -45130.678     -1276018.6      12635.605      8607.6261      875.21569     -27037.015      64.920761      62.722352      54.605461      222352.5       1.2375112      0.0021023657   0.0015303904   0.0050148287   0.0021001588   0.0015292205   0.0050022963   19.952941      21.305315      5.5996584     -35.566641      31.333748     -32.806832     -15.241453      18.895764      3.2324353      14.512988     -1.9831052      9.4916496      3            
    254000   298.01571     -196.87365      1.2386413     -1281305.5      17822.529     -1299128       -45034.311     -1276019.8      12468.87       8557.0785      900.13803     -27037.569      65.00062       62.625777      54.572639      222149.63      1.2386413      0.0029787749   0.00079968125  0.0050567985   0.0029743471   0.00079936168  0.0050440558   26.00808       16.052581      17.784005     -9.1772115     -17.780502     -29.254315     -17.384046     -52.419673     -8.6093543     -5.4856396      2.4097702     -4.902752       3            
    256000   296.655        188.08766      1.2371316     -1281286.5      17741.153     -1299027.7     -45148.998     -1275953.8      12648.42       8543.3029      883.41482     -27037.786      65.059244      62.658136      54.561809      222420.72      1.2371316      0.0033106189  -0.0010282467   0.0050918148   0.0033051508  -0.0010287757   0.0050788953  -15.733993     -37.015908     -4.4240448     -15.140098     -33.710753     -26.526236      16.447025     -11.160784     -34.519391      31.641293     -23.710594     -12.264597      3            
    258000   296.85521      96.449545      1.23891       -1281209.8      17753.127     -1298962.9     -45123.896     -1275930.4      12577.22       8621.4081      892.71219     -27038.338      64.967394      62.661834      54.557294      222101.44      1.23891        0.0031408383  -0.0032746042   0.0051251425   0.0031359162  -0.0032799775   0.0051120537  -71.16521       31.073915      10.773045      34.1837       -25.330632      7.9762263      9.8036772     -8.6493218      0.66122614     4.5419814     -4.8469174      17.624745      3            
    260000   297.38372     -515.50506      1.2366839     -1281070.8      17784.734     -1298855.5     -45142.159     -1275897.7      12644.618      8606.5059      933.22882     -27039.465      64.984739      62.752316      54.56213       222501.25      1.2366839      0.0032841583  -0.006309583    0.0051539783   0.0032787773  -0.0063295726   0.005140742    96.219364      35.180132      25.301154     -47.15672      -39.860209     -3.6754864     -3.0758387      1.5755435     -58.202081      28.385274     -8.6003015      11.169983      3            
    262000   297.25939     -75.743418      1.2352914     -1281411.7      17777.298     -1299189       -45132.038     -1276035.4      12645.262      8451.5778      881.67745     -27039.081      64.995652      62.783958      54.586938      222752.06      1.2352914      0.0030797838  -0.0075714246   0.0051887744   0.003075051   -0.0076002333   0.0051753591  -46.171929     -55.824906      125.02094      41.790916     -15.951177     -81.080297     -2.8486004      5.5840201      16.993714      7.4646875      14.056141     -4.5921067      3            
    264000   297.28145     -721.37979      1.2363508     -1281196.2      17778.618     -1298974.8     -45143.39      -1275885        12673.341      8504.6524      875.59358     -27037.853      65.014737      62.783752      54.524332      222561.19      1.2363508      0.0026979097  -0.0086614081   0.0052345008   0.0026942769  -0.0086991361   0.0052208484   142.53823      90.41209      -13.668896      26.797936     -11.081813     -28.577492     -19.921335     -30.23473       19.015081      11.999344     -6.2355824      15.155435      3            
    266000   295.76145     -114.90351      1.2366148     -1281170.6      17687.715     -1298858.3     -45094.315     -1275881.5      12640.607      8590.1002      886.80161     -27037.728      65.07459       62.826536      54.425465      222513.67      1.2366148      0.0023993858  -0.0087097513   0.0052864272   0.0023965119  -0.0087479028   0.0052725031  -27.220167      55.899018      6.2489457     -27.676164      10.990092     -26.464014     -4.1860046      5.6576851     -24.135694     -3.0879974     -16.158166      4.685352       3            
    268000   295.63772     -363.44011      1.2351867     -1281342.1      17680.316     -1299022.4     -45081.927     -1275956.6      12745.05       8384.4684      886.60923     -27039.416      65.130611      62.875646      54.399001      222770.94      1.2351867      0.0028497936  -0.0077074032   0.0053279036   0.0028457406  -0.0077372587   0.0053137605  -26.115679      67.193778      69.39861       41.984498      10.733142     -34.673777      31.363378     -42.854048     -38.911758      8.6035984     -0.75805988     9.3513464      3            
    270000   296.00275     -217.46287      1.2318969     -1281518        17702.146     -1299220.1     -45076.362     -1276098.8      12661.625      8421.8561      871.53411     -27039.287      65.094308      63.004506      54.463075      223365.86      1.2318969      0.0019699294  -0.0073973871   0.0053689026   0.0019679916  -0.0074248834   0.0053545415  -12.172366      52.067243      26.208398      31.971551      31.497895     -80.24469       0.17752539     23.359093      4.2597361     -1.7348606      5.5710092      18.096         3            
    272000   298.19059      289.16054      1.2350102     -1281214.4      17832.987     -1299047.4     -45049.024     -1276035.1      12582.659      8570.1774      883.88085     -27038.637      64.995501      63.037739      54.379684      222802.78      1.2350102     -2.2663956e-05 -0.0073899051   0.0054318467  -2.2664213e-05 -0.0074173458   0.0054171474  -33.946897     -4.0938515     -49.856827      31.089512     -21.697318      7.7125124     -6.9572792     -9.5832172      11.445699     -44.399264     -0.98622318    -3.7995067      3            
    274000   299.59691      217.17943      1.2400257     -1281238.1      17917.091     -1299155.2     -45050.42      -1276061.6      12579.905      8505.0457      871.89242     -27038.585      64.886509      63.054175      54.236568      221901.61      1.2400257     -0.0010323084  -0.0076226616   0.0054939116  -0.0010328416  -0.0076518626   0.0054788751  -87.044708     -29.62408       50.65167       7.2587198     -25.292754      0.028580586    29.820671      28.634721      6.8425229     -30.157713      6.078017      -14.299117      3            
    276000   295.87894      476.75349      1.2414518     -1281490.7      17694.742     -1299185.4     -45129.471     -1276050.6      12570.406      8530.3046      893.94283     -27038.644      64.864302      63.141046      54.118252      221646.71      1.2414518     -0.0019800056  -0.0080174449   0.0055540167  -0.0019819684  -0.0080497574   0.00553865    -71.812911      1.2609356     -74.369167      29.41705      -29.96387       95.03348       49.942754      27.122734      3.1870289     -12.703984     -14.135289      29.119349      3            
    278000   300.761       -1229.4684      1.241143      -1281167.1      17986.708     -1299153.8     -45092.894     -1275956.8      12533.593      8479.0498      883.27208     -27039.128      64.811067      63.21939       54.109042      221701.85      1.241143      -0.0022052849  -0.0069606571   0.005594614   -0.0022077201  -0.0069849955   0.0055790223   72.964508      165.55799      135.20516      0.57665549     2.9218679     -0.10239196     3.9243289      22.293392      4.4100386      9.4603478     -16.434334      20.32017       3            
[...]
   5940000   298.88867      69.815676      1.2318367     -1281111.9      17874.735     -1298986.6     -45012.695     -1276116.2      12582.206      8645.6559      914.4501      -27037.193      65.299682      62.741437      54.522088      223376.77      1.2318367      0.0095847556  -0.017848546    0.11756888     0.0095391132  -0.018009752    0.11115569     29.312866     -86.648724      36.113637      4.0331546     -21.15266       100.32878      32.116509     -30.752927      3.9671511      13.459586     -2.3078321      59.080478      3            
   5942000   298.70849     -60.041314      1.2317811     -1281087        17863.96      -1298951       -45059.157     -1276095.7      12640.021      8650.2805      913.59899     -27037.309      65.301259      62.68926       54.568612      223386.85      1.2317811      0.010757818   -0.018021167    0.11748394     0.010700365   -0.018185526    0.11107968     43.205522      78.587469     -103.54193     -76.504318     -0.49153151     109.86994     -35.569754      16.644733     -3.4053128      8.794783       19.524131      63.197838      3            
   5944000   296.84389      184.71605      1.2330517     -1281240.3      17752.45      -1298992.7     -45042.38      -1276170.1      12682.931      8627.1329      909.73162     -27036.533      65.32568       62.562803      54.602149      223156.67      1.2330517      0.011906155   -0.018661229    0.11742012     0.011835834   -0.018837547    0.11102256    -22.522586     -44.197409      10.570934     -52.271576      86.86596       43.35506       13.993487     -6.0901825      22.344209      6.1679079      5.411576       38.535897      3            
   5946000   299.23262      461.09652      1.2358636     -1281219        17895.305     -1299114.3     -45047.053     -1276132.5      12635.675      8544.2012      885.35696     -27037.419      65.284948      62.477548      54.586288      222648.92      1.2358636      0.013608388   -0.018841509    0.11745579     0.013516626   -0.019021272    0.11105449    -116.75799      45.487433     -68.891253      33.54055      -23.564925      144.73883      16.497175      0.39480676     31.402741     -5.2610806      13.254092      71.442526      3            
   5948000   298.10987      119.49496      1.2354286     -1280992        17828.16      -1298820.1     -45122.092     -1276046.9      12791.341      8633.9954      923.49589     -27035.729      65.291878      62.493164      54.586068      222727.32      1.2354286      0.016138343   -0.018585276    0.11744778     0.016009504   -0.018760153    0.11104732    -19.170264     -37.398611      20.245395     -28.424506     -48.884143      26.084051      20.91521       2.9381743     -0.93111545    -13.473941      6.0957735      80.845895      3            
   5950000   296.56642     -80.479117      1.2334391     -1281226.1      17735.856     -1298961.9     -45004.019     -1276119.6      12645.431      8612.2192      904.07945     -27035.944      65.293324      62.548247      54.624759      223086.58      1.2334391      0.019918265   -0.017439357    0.11735099     0.019722492   -0.017593214    0.11096069    -51.831497      48.501792      27.793345     -23.269067      13.647901      30.386565      17.063892      1.3097872      4.2389829      7.4914383     -9.1749316      48.855174      3            
   5952000   299.03627      395.64151      1.2362315     -1280796.5      17883.563     -1298680       -44945.877     -1275910.1      12579.065      8678.0281      918.85761     -27037.623      65.21468       62.516112      54.595142      222582.66      1.2362315      0.023491161   -0.015613959    0.1174283      0.02321949    -0.015737141    0.11102988     7.5279017     -150.67298      22.879949      12.478051     -51.348827      10.964649     -12.886154     -39.15951       7.646458       12.887548     -13.690483      54.766896      3            
   5954000   296.21763     -114.2694       1.2378997     -1281147        17714.997     -1298862       -45021.205     -1276012        12620.476      8662.3569      888.40506     -27038.282      65.126105      62.550315      54.56587       222282.71      1.2378997      0.025679256   -0.012757547    0.11756802     0.025355082   -0.012839623    0.11115491     27.251723      30.708173     -23.224854      70.389351      23.287679      68.769544     -15.682027     -30.082268     -42.451953      24.871124     -3.3113633      53.946025      3            
   5956000   296.26832     -25.095382      1.2330655     -1281265.8      17718.028     -1298983.8     -45020.724     -1276105.3      12541.066      8705.0518      896.08366     -27037.672      65.142183      62.649196      54.679836      223154.17      1.2330655      0.025550617   -0.010898088    0.1174162      0.025229656   -0.010957908    0.11101905     7.6748056      16.27657      -16.323007     -42.807725     -9.3994525      68.269684     -19.390032     -8.8128949      33.130047      31.697035      10.172194      55.907111      3            
   5958000   297.60591      9.3268397      1.2286889     -1280925.5      17798.021     -1298723.6     -44912.64      -1276095.3      12796.861      8576.5019      911.05902     -27036.744      65.223866      62.746488      54.720903      223949.04      1.2286889      0.023331226   -0.010055255    0.11741941     0.023063214   -0.010106151    0.11102193    -44.5532       -6.643732       48.361806     -16.783487     -45.260738     -60.732794     -32.001224     -13.527905      20.463431     -1.7730096      14.725607      75.645024      3            
   5960000   296.50027     -382.15554      1.2297865     -1281095.6      17731.9       -1298827.5     -45018.84      -1276079.8      12711.881      8655.0851      904.15987     -27038.336      65.224944      62.789469      54.633735      223749.16      1.2297865      0.02062467    -0.0099804884   0.11768067     0.020414861   -0.010030627    0.11125571    -69.172513      152.02993      33.308316      101.21135      33.173076      134.55924      30.228296      21.138305     -3.6118687     -0.29297715     24.709274      73.262059      3            
   5962000   297.56983     -132.24123      1.2350771     -1281093.9      17795.864     -1298889.8     -45049.834     -1276012.5      12633.261      8649.6374      889.71555     -27037.294      65.165891      62.71401       54.514517      222790.71      1.2350771      0.018258846   -0.010749321    0.11798951     0.018094155   -0.010807512    0.11153199     40.730847     -8.8463699      8.3135517      20.446234      26.285007      89.715917      36.589401      25.433626     -9.6976773     -0.73113183    -2.8178701      54.826226      3            
   5964000   300.29731     -223.93132      1.2370297     -1280788.1      17958.978     -1298747       -45047.183     -1275987.4      12754.012      8615.0615      918.47573     -27038.092      65.127664      62.690122      54.481166      222439.04      1.2370297      0.016667073   -0.011240222    0.11811214     0.016529702   -0.011303871    0.11164167     57.399615      19.569827     -8.8999187     -6.7563148     -44.122142      55.348411     -35.709702     -0.34702877    -10.018235      3.2095731     -1.5880404      32.483857      3            
   5966000   298.54443      183.6095       1.2372747     -1281160.6      17854.148     -1299014.8     -45064.061     -1276145        12668.39       8630.0894      895.77626     -27037.439      65.151021      62.610692      54.51993       222395         1.2372747      0.01602664    -0.01126233     0.11807619     0.015899569   -0.01132623     0.11160952    -5.0376441     -66.663052      15.887998      18.527434      26.445448     -5.4921721      0.70882964     19.554532     -19.490541     -2.1151485     -18.901329      98.006192      3            
   5968000   298.0739      -206.83162      1.2385145     -1281292        17826.009     -1299118.1     -45090.256     -1276150.7      12607.362      8617.3068      898.19538     -27038.615      65.164842      62.454901      54.589635      222172.38      1.2385145      0.015001596   -0.010683296    0.11798883     0.014890185   -0.010740772    0.11153138     48.143563      6.7771157      7.9509615      25.353451     -5.8484592      72.876923      24.965906     -13.357622      13.496327     -21.757009     -4.8241029      44.521964      3            
   5970000   297.32323      227.66284      1.2380438     -1280933.9      17781.116     -1298715.1     -45012.826     -1276026.8      12634.943      8770.5428      919.12286     -27039.496      65.24824       62.397867      54.590439      222256.84      1.2380438      0.014184255   -0.0098940947   0.11804877     0.014084599   -0.0099433666   0.111585      -49.708898     -2.3699176     -17.124997     -4.2952882      12.026734     -11.283048      37.195266     -7.5941914      11.964239      10.343782      1.9953948      51.065576      3            
   5972000   298.13016      204.9333       1.2349914     -1281095.4      17829.374     -1298924.8     -45067.648     -1276048.3      12684.784      8606.1766      900.22867     -27037.933      65.317018      62.47483       54.600393      222806.17      1.2349914      0.012621046   -0.0093057069   0.11809286     0.012542064   -0.0093492755   0.11162443     36.652243     -89.541142     -9.4056994      60.828216     -41.862846      51.197073      0.90038539    -3.261812       36.195215     -5.3571937     -7.1198891      68.327398      3            
   5974000   298.68406      1082.7705      1.2352647     -1281211.3      17862.499     -1299073.8     -45130.604     -1276099.5      12739.334      8530.1822      886.79761     -27038.52       65.391117      62.527037      54.480929      222756.87      1.2352647      0.010503572   -0.0091145124   0.11841394     0.010448792   -0.0091563037   0.11191156    -152.46039     -10.232855     -166.44191      13.890435      8.2725308      49.403551     -35.290997     -9.7972514      4.4285845     -3.7627308      10.271173      49.296722      3            
   5976000   300.44534     -394.98291      1.2341818     -1281059.3      17967.83      -1299027.1     -45036.933     -1276113.5      12643.639      8578.7875      900.8976      -27036.991      65.533092      62.571347      54.372069      222952.33      1.2341818      0.0084763707  -0.0088264077   0.11871204     0.008440648   -0.0088655911   0.11217806    -9.5662903      164.4961      -34.864884     -18.257771      23.340745      90.06469       24.553673      16.366104      22.165589     -6.7065649     -11.714853      74.264203      3            
   5978000   301.39897      1039.3687      1.2362731     -1280741.7      18024.862     -1298766.6     -44970.889     -1276031.2      12730.212      8600.6649      904.64886     -27036.61       65.57716       62.521551      54.286819      222575.18      1.2362731      0.0066821168  -0.0082711518   0.11895814     0.0066598904  -0.0083055476   0.11239802    -50.718374     -201.19933     -64.024397      29.405205     -37.710319      128.92184      18.585219     -17.798091      1.5399874     -1.3811416     -18.332988      75.946383      3            
   5980000   297.4429       614.41923      1.2340166     -1281081.4      17788.273     -1298869.7     -45009.826     -1276009.8      12592.708      8655.7763      901.52791     -27037.973      65.583767      62.590933      54.320323      222982.17      1.2340166      0.0043288194  -0.0070715523   0.11895233     0.004319477   -0.0070966742   0.11239283    -76.537272     -44.866842     -65.363971      7.7020229     -1.7891906      73.60473      -21.940731     -1.9371291     -22.185523     -15.715292     -12.589213      60.994346      3            
   5982000   298.48992     -229.17805      1.2309165     -1281241.7      17850.889     -1299092.6     -44980.96      -1276196.8      12685.226      8509.2352      890.65972     -27036.812      65.630687      62.621385      54.391739      223543.77      1.2309165      0.0032399954  -0.0052229186   0.11885258     0.0032347579  -0.0052366057   0.11230367    -32.095096      28.965624      72.793869      2.4365635      49.3515        32.335253      26.106912      27.610824      34.757447     -15.311127      11.647215      79.535074      3            
   5984000   299.47219      28.479391      1.2324528     -1280936.8      17909.632     -1298846.4     -45058.092     -1275978.8      12645.89       8641.9503      902.59135     -27037.347      65.55537       62.624944      54.38326       223265.11      1.2324528      0.0039441287  -0.0034484411   0.11891427     0.003936371   -0.0034544007   0.11235881     57.511856     -72.79879       6.6299118     -77.390789     -36.927635      57.699046     -10.710602      6.7261959      23.139786      34.466161      8.3913308      47.422228      3            
   5986000   299.674       -729.13541      1.2348178     -1281112.4      17921.702     -1299034.1     -45099.276     -1276048        12561.269      8657.8184      894.08214     -27037.498      65.390144      62.632504      54.409682      222837.49      1.2348178      0.0045589124  -0.0021498272   0.11890037     0.004548552   -0.0021521414   0.11234639     72.752499      138.74853      10.137906      64.349072      44.86558       68.216034     -25.726467      20.672965      8.5797945      2.5419392      9.4383413      55.330361      3            
   5988000   295.50259     -152.12219      1.2354339     -1281168.6      17672.234     -1298840.8     -45124.039     -1275915.3      12704.437      8605.3353      888.78315     -27037.867      65.313219      62.650794      54.430703      222726.36      1.2354339      0.0053635898  -0.0015292528   0.11889548     0.005349257   -0.0015304233   0.11234202    -50.419758      48.130215      48.530886      42.361462     -23.74732       41.019802     -27.249296     -6.2099158      11.151279     -15.632037     -11.482231      47.539105      3            
   5990000   295.67844      306.15074      1.2359936     -1281070.5      17682.751     -1298753.2     -45052.304     -1275901.8      12783.456      8514.3838      903.03213     -27037.133      65.315993      62.648594      54.40566       222625.52      1.2359936      0.0072187463  -0.00080103517  0.1189902      0.0071928158  -0.00080135617  0.11242668    -85.703662      5.0069876     -12.365495      70.506581     -18.4285        93.765285      7.5893558      0.015935965   -1.9815272      23.724697      0.91140142     65.245766      3            
   5992000   296.71929     -188.8523       1.2332248     -1281408        17744.998     -1299153       -45029.778     -1276144.7      12605.317      8544.5335      871.63468     -27037.634      65.364563      62.742162      54.40603       223125.33      1.2332248      0.0089700327  -0.00048628756  0.11902852     0.008930041   -0.00048640583  0.11246091    -12.365506      52.739098      17.032786     -14.614226     -0.16941888     109.83595     -10.055512     -22.986537     -25.047526      2.1235745      4.4142845      50.811468      3            
   5994000   298.7536      -870.14974      1.2301142     -1281056.6      17866.658     -1298923.2     -45064.906     -1276028.2      12664.606      8586.8521      918.43918     -27037.396      65.451352      62.832338      54.393109      223689.57      1.2301142      0.010773191   -0.00047172513  0.11909304     0.010715574   -0.00047183643  0.11251857     86.154401      38.691502      139.65786     -18.693587     -35.857767      157.82204      19.220799     -22.062448     -10.328525     -1.4599259      1.5949955      66.261229      3            
   5996000   297.19981     -810.32152      1.2310755     -1281073.5      17773.735     -1298847.3     -45028.007     -1276005.6      12577.708      8701.8753      906.78226     -27037.345      65.429902      62.842703      54.359484      223514.89      1.2310755      0.013051842   -0.00091508297  0.1191952      0.012967401   -0.00091550192  0.11260986     108.5863       32.17528       105.5559      -39.741874      25.963812      39.268604      21.886595     -11.054347     -51.526112     -4.2397048     -0.91221919     65.07185       3            
   5998000   294.2051      -314.0786       1.2304191     -1281433.5      17594.64      -1299028.1     -45033.273     -1276092.7      12580.343      8609.1346      908.39971     -27038.156      65.35276       62.819442      54.472846      223634.13      1.2304191      0.015495848   -0.0022970321   0.11896051     0.015377014   -0.0022996743   0.11240014     36.529172      6.1649486      52.77792      -53.057923     -86.545369      70.134173     -26.26081       9.9160221     -20.430735      5.2313074     -15.165278      55.858007      3            
   6000000   296.59483     -60.043914      1.2292361     -1281126.3      17737.555     -1298863.8     -44984.314     -1275986.3      12739.787      8466.3315      900.62502     -27038.847      65.319918      62.768217      54.597206      223849.35      1.2292361      0.016458925   -0.0030801196   0.11871393     0.016324945   -0.0030848729   0.11217975    -10.323184      47.083936     -18.508904     -82.262022     -54.515317      72.425471     -5.6256659      14.652653      18.238919      26.37944      -16.371402      52.967073      3            
Loop time of 115474 on 16 procs for 6000000 steps with 20064 atoms

Performance: 0.449 ns/day, 53.460 hours/ns, 51.960 timesteps/s, 1.043 Matom-step/s
98.6% CPU use with 16 MPI tasks x no OpenMP threads

MPI task timing breakdown:
Section |  min time  |  avg time  |  max time  |%varavg| %total
---------------------------------------------------------------
Pair    | 76573      | 81531      | 86035      | 831.7 | 70.61
Bond    | 18619      | 19176      | 20048      | 293.4 | 16.61
Kspace  | 5645.1     | 10879      | 16395      |2609.7 |  9.42
Neigh   | 730.53     | 730.67     | 730.86     |   0.4 |  0.63
Comm    | 1392.7     | 1422       | 1452.3     |  59.3 |  1.23
Output  | 2.1086     | 2.1126     | 2.1654     |   0.9 |  0.00
Modify  | 1434.8     | 1528.8     | 1572.9     | 138.1 |  1.32
Other   |            | 203.8      |            |       |  0.18

Nlocal:           1254 ave        1293 max        1212 min
Histogram: 2 0 3 2 0 0 5 1 1 2
Nghost:        11822.1 ave       11935 max       11712 min
Histogram: 1 3 1 3 0 1 1 2 2 2
Neighs:         645651 ave      680729 max      605582 min
Histogram: 1 0 3 2 1 2 2 2 2 1

Total # of neighbors = 10330421
Ave neighs/atom = 514.87345
Ave special neighs/atom = 5.8041268
Neighbor list builds = 22605
Dangerous builds = 0

#-------------------Wrap up-------------------
write_restart   ${myid}.restart
write_restart   shear_L10_rep_1_3_full_xld_erate_2e8_IFF-RX0_mmorse.restart
System init for write_restart ...
PPPM initialization ...
  using 12-bit tables for long-range coulomb (../kspace.cpp:342)
  G vector (1/distance) = 0.1840863
  grid = 18 18 16
  stencil order = 5
  estimated absolute RMS force accuracy = 0.024192273
  estimated relative force accuracy = 7.2854313e-05
  using double precision KISS FFT
  3d grid and FFT values/proc = 1820 360
Generated 45 of 45 mixed pair_coeff terms from sixthpower/sixthpower mixing rule
write_data      ${myid}.data
write_data      shear_L10_rep_1_3_full_xld_erate_2e8_IFF-RX0_mmorse.data
System init for write_data ...
PPPM initialization ...
  using 12-bit tables for long-range coulomb (../kspace.cpp:342)
  G vector (1/distance) = 0.1840863
  grid = 18 18 16
  stencil order = 5
  estimated absolute RMS force accuracy = 0.024192273
  estimated relative force accuracy = 7.2854313e-05
  using double precision KISS FFT
  3d grid and FFT values/proc = 1820 360
Generated 45 of 45 mixed pair_coeff terms from sixthpower/sixthpower mixing rule
Total wall time: 32:04:34
