thermo_style   custom step pe ke temp etotal evdwl press pxx pyy pzz v_etrue v_eengx v_eengy v_eengz v_sxx v_syy v_szz f_sxx_ave f_syy_ave                f_szz_ave v_etruex v_etruey v_etruez lx ly lz v_dir vol density ebond eangle edihed eimp bonds angles dihedrals impropers
restart        100000 rst1.a.${myid} rst2.a.${myid}
restart        100000 rst1.a.tensile_L10_rep_1_1_full_xld_erate_2e8_IFF-RX0 rst2.a.${myid}
restart        100000 rst1.a.tensile_L10_rep_1_1_full_xld_erate_2e8_IFF-RX0 rst2.a.tensile_L10_rep_1_1_full_xld_erate_2e8_IFF-RX0
dump           6 all atom 10000 dump.${myid} #every picosecond
dump           6 all atom 10000 dump.tensile_L10_rep_1_1_full_xld_erate_2e8_IFF-RX0 
dump_modify    6 scale no sort id

#-------------------Run-------------------
timestep       ${mytimestep}
timestep       0.1
run            ${steps}
run            5000000
PPPM initialization ...
  using 12-bit tables for long-range coulomb (../kspace.cpp:342)
  G vector (1/distance) = 0.18084032
  grid = 16 16 15
  stencil order = 5
  estimated absolute RMS force accuracy = 0.028769211
  estimated relative force accuracy = 8.6637625e-05
  using double precision KISS FFT
  3d grid and FFT values/proc = 1521 256
Generated 45 of 45 mixed pair_coeff terms from sixthpower/sixthpower mixing rule
Neighbor list info ...
  update: every = 1 steps, delay = 0 steps, check = yes
  max neighbors/atom: 5000, page size: 100000
  master list distance cutoff = 14
  ghost atom cutoff = 14
  binsize = 7, bins = 10 10 8
  1 neighbor lists, perpetual/occasional/extra = 1 0 0
  (1) pair lj/class2/coul/long, perpetual
      attributes: half, newton on
      pair build: half/bin/newton
      stencil: half/bin/3d
      bin: standard
WARNING: Inconsistent image flags (../domain.cpp:815)
Per MPI rank memory allocation (min/avg/max) = 21.41 | 21.44 | 21.81 Mbytes
   Step         PotEng         KinEng          Temp          TotEng         E_vdwl         Press           Pxx            Pyy            Pzz          v_etrue        v_eengx        v_eengy        v_eengz         v_sxx          v_syy          v_szz        f_sxx_ave      f_syy_ave      f_szz_ave       v_etruex       v_etruey       v_etruez          Lx             Ly             Lz           v_dir          Volume        Density         E_bond        E_angle        E_dihed        E_impro        Bonds      Angles      Diheds      Impros   
         0  -1298895.3      17821.59       298           -1281073.7     -844.74462     -200.76934      302.51748     -860.79651     -44.028982      0             -6.6003242e-16  1.123047e-16  -9.1307983e-16 -30.652584      87.220207      4.4612366      0              0              0             -6.6613381e-16  2.220446e-16  -8.8817842e-16  64.591622      63.269191      54.472774      1              222611.69      1.2360703     -1276044.3      12635.042      8663.0366      893.71016          21924       36303       53175       13773 
      2000  -1299306.6      17929.183      299.7991      -1281377.4     -881.05824     -249.69477     -391.0509      -200.53398     -157.49944      3.99992e-05    4e-05         -0.0014227046   0.00065910357  39.62175       20.31765       15.957136     -23.330826      17.864113     -10.958373      3.99992e-05   -0.0014237176   0.00065888645  64.594205      63.179177      54.508677      1              222450.39      1.2369666     -1276133.8      12495.869      8568.0698      875.13901          21924       36303       53175       13773 
      4000  -1299099.8      17737.2        296.58889     -1281362.6     -754.55839     -368.19129     -667.00298     -117.65351     -319.91738      7.99968e-05    8e-05         -0.004306864    0.0020035722   67.584851      11.922008      32.41639      -25.269472      12.123205     -3.764936       7.99968e-05   -0.0043161652   0.0020015678   64.596789      62.996699      54.581914      1              222114.79      1.2388356     -1276158.6      12554.277      8601.4245      907.00883          21924       36303       53175       13773 
      6000  -1299107.5      17889.561      299.13657     -1281217.9     -967.39753     -302.25467     -103.21316      244.62449     -1048.1753      0.0001199928   0.00012       -0.0053296004   0.0042634033   10.45898      -24.785659      106.20729     -27.165724     -20.157444      0.65611486     0.0001199928  -0.0053438534   0.0042543407   64.599373      62.931991      54.705014      1              222395.96      1.2372693     -1276071.2      12617.24       8591.6887      917.64473          21924       36303       53175       13773 
      8000  -1298858.5      17888.677      299.12179     -1280969.8     -813.05983     -592.89758     -599.4153      -608.27692     -571.00052      0.0001599872   0.00016       -0.0055529377   0.0043994367   60.737103      61.635         57.85796      -18.393163     -12.045383      19.082682      0.0001599872  -0.0055684125   0.0043897874   64.601956      62.917861      54.712424      1              222385.04      1.2373301     -1275908.2      12579.232      8596.6417      902.42555          21924       36303       53175       13773 
     10000  -1299086.7      17866.022      298.74296     -1281220.7     -847.29142      47.525341     -194.40504      1111.6586     -774.6775       0.00019998     0.0002        -0.0047922522   0.0045923512   19.69569      -112.6412       78.491778     -24.238349     -5.1636387     -7.7205094      0.00019998    -0.0048037718   0.0045818385   64.60454       62.965989      54.722932      1              222606.8       1.2360975     -1276032        12608.064      8510.5221      886.63868          21924       36303       53175       13773 
     12000  -1299130.3      17830.323      298.14603     -1281300       -915.6134      -537.5904      -1467.3007     -55.819193     -89.651334      0.0002399712   0.00024       -0.0031058552   0.0047561184   148.67485      5.656483       9.0845205     -19.888905     -11.150701     -4.957651       0.0002399712  -0.0031106884   0.0047448438   64.607124      63.072686      54.731853      1              223029.28      1.233756      -1275962.5      12635.707      8451.9438      885.92893          21924       36303       53175       13773 
     14000  -1298851        17868.546      298.78517     -1280982.5     -835.9115      -263.5173      -664.09833     -728.49797      602.04439      0.00027996081  0.00028       -0.0025253531   0.0029963708   67.291351      73.816628     -61.000582      0.52727738     12.710848      11.764538      0.00027996081 -0.0025285472   0.0029918906   64.609707      63.109414      54.635995      1              222777.22      1.2351519     -1275875.1      12626.105      8531.24        919.90671          21924       36303       53175       13773 
     16000  -1299041.8      17772.835      297.18476     -1281268.9     -867.01182     -559.71613      395.1147      -380.42346     -1693.8396      0.00031994881  0.00032       -0.0027923295   0.0015689668  -40.036628      38.544804      171.62668     -35.929396     -0.685385       12.036451      0.00031994881 -0.0027962353   0.0015677373   64.612291      63.092522      54.55824       1              222409.52      1.2371939     -1276017.2      12608.241      8529.5784      909.88152          21924       36303       53175       13773 
     18000  -1299195.3      17964.118      300.38325     -1281231.1     -831.34698      97.975657     -184.52112      596.47349     -118.0254       0.00035993522  0.00036       -0.0029884601  -0.00030226647  18.697837     -60.436472      11.960146     -27.279503      3.5846683     -3.508048       0.00035993522 -0.0029929345  -0.00030231216  64.614875      63.080113      54.456309      1              221959.21      1.2397039     -1276081.8      12463.846      8612.0014      867.21438          21924       36303       53175       13773 
     20000  -1299057.7      17911.425      299.50216     -1281146.2     -828.85365      301.65708      486.73038      87.410402      330.83046      0.00039992002  0.0004        -0.0029927644  -0.00031328026 -49.319776     -8.8586444     -33.523205     -16.010445      5.9010808     -22.18983       0.00039992002 -0.0029972517  -0.00031332935  64.617458      63.079841      54.455709      1              221964.68      1.2396734     -1276179.9      12662.176      8616.4059      899.01955          21924       36303       53175       13773 
     22000  -1299189.5      17739.661      296.63004     -1281449.9     -954.17126     -288.9304       359.00852     -697.59141     -528.20831      0.00043990323  0.00044       -0.0036401517   0.00012364069 -36.376087      70.683891      53.521154     -14.060657      4.394553       7.2957259      0.00043990323 -0.0036467932   0.00012363305  64.620042      63.038881      54.479509      1              221926.37      1.2398873     -1276177.9      12696.277      8600.69        886.18786          21924       36303       53175       13773 
     24000  -1298850.3      17634.882      294.87801     -1281215.4     -778.30057      1463.4407      1862.1667      1369.8697      1158.2856      0.00047988484  0.00048       -0.0046067551   0.0012055872  -188.68327     -138.80128     -117.36252     -0.73836055    -3.2914253     -31.862467      0.00047988484 -0.0046173989   0.0012048611   64.622626      62.977725      54.538446      1              221959.8       1.2397006     -1276013.3      12714.883      8577.3487      894.68234          21924       36303       53175       13773 
     26000  -1299024.8      17835.632      298.23481     -1281189.2     -855.41495      25.331775     -400.99254      1105.3606     -628.37274      0.00051986485  0.00052       -0.0038537449   0.0033215421   40.630208     -112.00102      63.669504     -9.2674119     -4.3369631      16.798293      0.00051986485 -0.0038611897   0.003316038    64.625209      63.025367      54.653708      1              222606.06      1.2361016     -1276109        12666.529      8614.4227      896.70713          21924       36303       53175       13773 
     28000  -1299138.2      17754.868      296.88433     -1281383.3     -761.52608     -345.07683      381.78477     -706.49755     -710.51771      0.00055984326  0.00056       -0.0030718878   0.0044943859  -38.68672       71.583469      71.990825     -17.12506      -13.83911      -3.5677522      0.00055984326 -0.0030766157   0.0044843164   64.627793      63.074835      54.717596      1              223050.12      1.2336407     -1276147.1      12622.007      8479.0769      896.40662          21924       36303       53175       13773 
     30000  -1299237.1      17835.397      298.23088     -1281401.7     -903.10209     -399.51599      25.74892      -302.43225     -921.86465      0.00059982007  0.0006        -0.0029312291   0.0045727505  -2.6053651      30.647555      93.41157       16.194865      26.611929      13.347455      0.00059982007 -0.0029355336   0.0045623273   64.630377      63.083734      54.721865      1              223107.91      1.2333212     -1276059.4      12557.295      8496.9155      905.07798          21924       36303       53175       13773 
     32000  -1299118.8      17937.415      299.93675     -1281181.4     -796.4045      -674.50864     -861.32745     -104.78259     -1057.4159      0.00063979529  0.00064       -0.0043388028   0.0039550204   87.273363      10.616454      107.14202     -13.099389     -6.6253587     -6.9156303      0.00063979529 -0.0043482427   0.0039472198   64.63296       62.994678      54.688215      1              222664.85      1.2357752     -1276073.2      12583.554      8483.7598      893.71744          21924       36303       53175       13773 
     34000  -1299080.6      17672.836      295.51264     -1281407.8     -820.02068     -27.582047      503.79707      192.83978     -779.38299      0.0006797689   0.00068       -0.0054459668   0.0039861836  -51.048472     -19.540731      78.969749     -20.867113      4.1444691      13.230227      0.0006797689  -0.0054608501   0.0039782598   64.635544      62.924629      54.689913      1              222433.04      1.2370631     -1276071.1      12599.339      8528.1927      894.50872          21924       36303       53175       13773 
     36000  -1298995.8      17855.474      298.56659     -1281140.3     -927.11761     -441.66086      182.953       -15.753059     -1492.1825      0.00071974092  0.00072       -0.0059370303   0.0025127636  -18.535662      1.5981773      151.19742     -12.869981      0.68954575    -2.2175517      0.00071974092 -0.0059547245   0.0025096119   64.638128      62.89356       54.609651      1              222005.81      1.2394437     -1275994.4      12653.158      8575.8369      895.44214          21924       36303       53175       13773 
     38000  -1299009.9      17836.584      298.25073     -1281173.3     -877.57636     -44.86829      -146.39978     -170.10729      181.9022       0.00075971135  0.00076       -0.0054696669   0.0021473923   14.83183       17.233958     -18.433392     -31.932756     -28.618534     -18.744487      0.00075971135 -0.0054846803   0.00214509     64.640711      62.923129      54.589749      1              222038.12      1.2392634     -1275994.6      12511.444      8666.6836      908.17813          21924       36303       53175       13773 
     40000  -1299135.4      17758.221      296.94039     -1281377.2     -809.53086     -505.68376      537.47796     -909.68848     -1144.8408      0.00079968017  0.0008        -0.0029068814   0.0027240325  -54.45947       92.174661      116.00147     -19.087044     -3.0811961      13.252087      0.00079968017 -0.0029111145   0.002720329    64.643295      63.085275      54.62116       1              222747.27      1.2353179     -1276063.5      12640.402      8452.2153      871.48843          21924       36303       53175       13773 
     42000  -1299124.5      17893.36       299.20009     -1281231.1     -914.22987      351.08183      814.75572     -52.900835      291.39059      0.0008396474   0.00084       -0.0014115581   0.0018621666  -82.554326      5.3609903     -29.524348     -8.9935012      17.034744      14.201703      0.0008396474  -0.0014125553   0.0018604349   64.645879      63.179882      54.574212      1              222898.49      1.2344799     -1276067.2      12598.695      8610.6959      882.16825          21924       36303       53175       13773 
     44000  -1299018.1      17722.53       296.3436      -1281295.5     -820.35218      111.63994      623.06762     -919.87595      631.72816      0.00087961303  0.00088       -0.0014171832   0.00059642028 -63.134268      93.204523     -64.011765     -21.65687       7.9666162     -8.4014384      0.00087961303 -0.0014181884   0.0005962425   64.648462      63.179527      54.505263      1              222624.52      1.2359991     -1276022.6      12586.985      8576.5162      888.71369          21924       36303       53175       13773 
     46000  -1299289.4      17727.944      296.43412     -1281561.5     -875.5782      -407.83884     -330.90661     -1175.9957      283.38583      0.00091957706  0.00092       -0.0015973374   0.00014970623  33.531122      119.15975     -28.712088     -24.842949      7.0323266     -9.0879867      0.00091957706 -0.0015986145   0.00014969503  64.651046      63.168128      54.480929      1              222493.88      1.2367248     -1276117.1      12491.547      8557.1521      888.76162          21924       36303       53175       13773 
     48000  -1299093.3      17846.429      298.41535     -1281246.9     -782.50397      166.08161      721.15112      66.220231     -289.12653      0.00095953949  0.00096       -0.0033700125  -0.0004085671  -73.06996      -6.7090812      29.296425     -5.1443155      5.5108472      7.7873808      0.00095953949 -0.0033757038  -0.00040865059  64.65363       63.055973      54.450518      1              221983.74      1.239567      -1276079.1      12480.491      8598.3369      895.44065          21924       36303       53175       13773 
     50000  -1298962.9      17857.347      298.59791     -1281105.6     -757.90101     -100.45835     -240.48283     -108.77328      47.881076      0.00099950033  0.001         -0.0043169153  -0.00031005244  24.367474      11.021999     -4.8509999     -41.510721     -16.229768     -18.077627      0.00099950033 -0.0043262601  -0.00031010052  64.656213      62.996063      54.455885      1              221803.55      1.2405739     -1275911        12569.08       8484.2275      881.67881          21924       36303       53175       13773 
     52000  -1298965.7      17598.374      294.26754     -1281367.3     -932.63214     -996.42611     -1077.6747     -338.07131     -1573.5323      0.0010394596   0.00104       -0.0043534534   0.00013679616  109.19369      34.253387      159.43644     -29.943208     -6.1518393      16.306735      0.0010394596  -0.0043629573   0.00013678681  64.658797      62.993751      54.480226      1              221903.42      1.2400156     -1275994        12618.977      8643.6085      882.79556          21924       36303       53175       13773 
     54000  -1299062.4      17831.485      298.16546     -1281230.9     -836.1426       174.68424     -121.55062      271.74016      373.8632       0.0010794172   0.00108       -0.0037317448   0.00077558522  12.31885      -27.531361     -37.878916     -31.120596      2.5762179     -9.5511686      0.0010794172  -0.0037387251   0.00077528461  64.661381      63.033086      54.515022      1              222192.68      1.2384013     -1276033.4      12531.328      8601.2964      889.73969          21924       36303       53175       13773 
     56000  -1298926.7      17797.426      297.59595     -1281129.2     -879.53784     -342.86809     -838.05986     -178.87437     -11.670049      0.0011193733   0.00112       -0.0033132484   0.0015837239   84.915762      18.123797      1.1818079     -19.067328     -5.5789514     -11.865817      0.0011193733  -0.0033187494   0.0015824711   64.663964      63.059564      54.559044      1              222474.4       1.2368331     -1276004        12604.132      8642.1198      899.56703          21924       36303       53175       13773 
     58000  -1299129.7      17874.079      298.87768     -1281255.6     -811.57742      78.95352       354.52969     -707.39491      589.72578      0.0011593277   0.00116       -0.0032629178   0.0035618969  -35.923726      71.67577      -59.754987     -9.2707985      0.65716128     11.211024      0.0011593277  -0.0032682527   0.0035555684   64.666548      63.062748      54.666801      1              222933.96      1.2342835     -1276066.1      12684.253      8437.9617      871.92693          21924       36303       53175       13773 
     60000  -1299307.6      17674.542      295.54118     -1281633.1     -744.20264      120.79363      678.57436      334.62077     -650.81425      0.0011992806   0.0012        -0.0035933288   0.0051952221  -68.756328     -33.905232      65.943971      27.304791      9.5883111      10.931521      0.0011992806  -0.0035998003   0.0051817735   64.669131      63.041844      54.755772      1              223231.69      1.2326373     -1276089.6      12558.755      8329.162       891.72278          21924       36303       53175       13773 
     62000  -1299077.3      17767.32       297.09254     -1281310       -806.78097     -191.18506     -681.40535      353.65276     -245.80258      0.0012392318   0.00124       -0.0055467188   0.0045874348   69.044903     -35.83239       24.907428     -14.400659      6.7513283      3.1819338      0.0012392318  -0.0055621589   0.0045769446   64.671715      62.918254      54.722664      1              222668.24      1.2357564     -1275986.4      12541.797      8492.5117      885.32682          21924       36303       53175       13773 
     64000  -1299068.9      17974.606      300.55863     -1281094.3     -708.37337      674.36261      309.24884      987.88391      725.95508      0.0012791815   0.00128       -0.0074638653   0.0041718729  -31.333891     -100.09658     -73.556641     -12.919517     -2.7553623     -4.8491011      0.0012791815  -0.0074918593   0.0041631948   64.674299      62.796958      54.700028      1              222155.91      1.2386062     -1276051.8      12499.787      8518.2425      891.97195          21924       36303       53175       13773 
     66000  -1299041.7      17656.476      295.23909     -1281385.2     -851.80931      679.51081      1134.2998      887.16323      17.069368      0.0013191296   0.00132       -0.0070077177   0.0041025674  -114.9349      -89.893749     -1.7315168     -31.500224     -25.76298       14.092709      0.0013191296  -0.0070323871   0.0040941748   64.676882      62.825818      54.696252      1              222251.55      1.2380733     -1276060.7      12670.936      8550.5792      895.06859          21924       36303       53175       13773 
     68000  -1299162.5      17864.206      298.71259     -1281298.3     -879.01977      281.58918      281.64926      213.83477      349.28352      0.001359076    0.00136       -0.0048290907   0.0033449632  -28.536777     -21.665497     -35.389818      4.2043732     -12.200125     -7.0203589      0.001359076   -0.0048407884   0.0033393812   64.679466      62.963658      54.654984      1              222580         1.2362463     -1276031.5      12588.06       8532.0232      865.41361          21924       36303       53175       13773 
     70000  -1299123.3      17957.198      300.26755     -1281166.1     -908.56875     -136.53771     -293.47255     -102.63821     -13.502372      0.0013990209   0.0014        -0.0028402133   0.002618802    29.736382      10.400094      1.3684053     -5.442315       18.180532      5.90326        0.0013990209  -0.0028442544   0.002615379    64.68205       63.089493      54.615428      1              222872.33      1.2346248     -1276058.1      12587.983      8548.1923      911.62767          21924       36303       53175       13773 
     72000  -1298973.4      17759.975      296.96972     -1281213.5     -806.2387       104.3617       143.18376      135.48919      34.412146      0.0014389642   0.00144       -0.0029528428   0.00064085795 -14.509327     -13.729659     -3.4880197      23.926684      14.815506      14.189062      0.0014389642  -0.002957211    0.00064065269  64.684633      63.082367      54.507683      1              222416.41      1.2371556     -1276030.2      12699.098      8498.7859      895.85369          21924       36303       53175       13773 
     74000  -1299150.1      17588.228      294.0979      -1281561.8     -898.92818      441.197        402.47033      763.29124      157.82942      0.0014789059   0.00148       -0.0038742204  -0.00072390544 -40.779253     -77.33943      -15.991001     -7.7150948     -8.7948594     -21.399353      0.0014789059  -0.0038817446  -0.00072416759  64.687217      63.024072      54.433341      1              221916.67      1.2399416     -1276104.2      12578.857      8604.0239      873.70901          21924       36303       53175       13773 
     76000  -1299147.5      17855.625      298.56912     -1281291.8     -914.64298      437.07468      544.85386      341.47725      424.89293      0.001518846    0.00152       -0.0041879146  -0.0003716064  -55.206346     -34.599191     -43.05132      -23.585715      2.3642262     -10.501783      0.001518846   -0.0041967085  -0.00037167546  64.689801      63.004225      54.452532      1              221933.86      1.2398455     -1276014.9      12487.49       8608.5024      889.08696          21924       36303       53175       13773 
     78000  -1298959.9      17820.587      297.98323     -1281139.4     -836.8066       335.08969     -117.92145      280.84962      842.34088      0.0015587845   0.00156       -0.004806523    0.00054281609  11.948692     -28.456776     -85.34989      -17.874819      13.582498     -12.772461      0.0015587845  -0.0048181115   0.00054266881  64.692384      62.965086      54.502343      1              222007.75      1.2394329     -1276049.4      12630.5        8603.7008      897.67016          21924       36303       53175       13773 
     80000  -1299008.5      17951.706      300.17571     -1281056.8     -890.3114       347.5964       456.47822      408.86776      177.44322      0.0015987214   0.0016        -0.0054881229   0.0023878583  -46.252943     -41.428815     -17.979726     -8.0173775     -23.579288      7.5043244      0.0015987214  -0.0055032379   0.0023850119   64.694968      62.921962      54.602847      1              222273.68      1.23795       -1275991.2      12648.432      8528.3982      896.21351          21924       36303       53175       13773 
     82000  -1299210.6      17867.817      298.77299     -1281342.8     -857.02249      266.22289     -365.16414      1154.4157      9.4171252      0.0016386567   0.00164       -0.0062646244   0.0023063039   36.998915     -116.97253     -0.95554393     5.2836909      25.57592       16.913979      0.0016386567  -0.0062843295   0.0023036484   64.697552      62.872833      54.598405      1              222090.93      1.2389686     -1275998        12608.403      8379.8209      867.6991           21924       36303       53175       13773 
     84000  -1299245.6      17940.22       299.98365     -1281305.3     -797.08687     -207.36288     -642.26091     -1.8919674      22.064232      0.0016785904   0.00168       -0.0068002658   0.0017073844   65.080412      0.19500155    -2.232294      -8.3276312     -15.101274      1.5825407      0.0016785904  -0.0068234929   0.0017059285   64.700135      62.838943      54.56578       1              221847.45      1.2403285     -1276110.8      12538.468      8446.6008      873.4841           21924       36303       53175       13773 
     86000  -1298961.1      17871.172      298.82908     -1281089.9     -789.31674      1132.6642      2168.9856      1254.2758     -25.26867       0.0017185225   0.00172       -0.0058455989   0.0017480797  -219.77315     -127.09018      2.5596661     -24.250276     -26.0583       -11.131849      0.0017185225  -0.0058627513   0.0017465536   64.702719      62.899344      54.567997      1              222078.58      1.2390376     -1276031.5      12777.954      8421.4202      874.1617           21924       36303       53175       13773 
     88000  -1299037.7      17700.042      295.96757     -1281337.6     -752.28604     -0.66273737    -156.75491      351.07225     -196.30556      0.001758453    0.00176       -0.0038440404   0.0029241942   15.882258     -35.573327      19.889703     -3.9760793      8.0844926     -15.729531      0.001758453   -0.0038514477   0.002919927    64.705303      63.025981      54.632063      1              222795.85      1.2350486     -1276074        12621.124      8491.5151      883.36823          21924       36303       53175       13773 
     90000  -1298890.1      17867.323      298.76472     -1281022.8     -767.49874      1796.3644      1656.9361      1547.5384      2184.6187      0.0017983819   0.0018        -0.0030580185   0.0047693504  -167.8844      -156.79968     -221.35181      23.899061      16.805992      9.2130247      0.0017983819  -0.0030627038   0.0047580131   64.707886      63.075712      54.732574      1              223390.78      1.2317594     -1275988.9      12753.358      8474.958       882.67331          21924       36303       53175       13773 
     92000  -1298948.1      17844.958      298.39076     -1281103.1     -731.28658      512.75134      818.15808      61.062981      659.03297      0.0018383093   0.00184       -0.0045273938   0.0049014296  -82.902199     -6.1895907     -66.778841     -14.733981      20.349408      17.94477       0.0018383093  -0.0045376735   0.0048894567   64.71047       62.982746      54.739769      1              223099.76      1.2333662     -1276055.4      12704.869      8470.0733      902.89995          21924       36303       53175       13773 
     94000  -1299062.9      17726.829      296.41549     -1281336.1     -824.36577      583.14511      583.23643      808.0553       358.14359      0.001878235    0.00188       -0.0069615199   0.004219626   -59.096335     -81.876107     -36.288804     -0.43752055    -2.8309663     -1.5148841      0.001878235   -0.0069858643   0.0042107484   64.713054      62.828741      54.702629      1              222412.12      1.2371794     -1276064.3      12556.478      8564.5438      889.39572          21924       36303       53175       13773 
     96000  -1299076        18054.237      301.89017     -1281021.8     -869.76515      206.05537     -55.452507      420.69331      252.9253       0.0019181592   0.00192       -0.0073835422   0.0037185703   5.6204611     -42.625044     -25.625933     -33.758902     -34.403312      0.85040226     0.0019181592  -0.0074109354   0.0037116735   64.715637      62.80204       54.675335      1              222215.54      1.2382739     -1276107.3      12750.525      8452.2713      887.82171          21924       36303       53175       13773 
     98000  -1299021.1      17844.477      298.38271     -1281176.7     -864.7986       257.00339      728.2344       784.56259     -741.78682      0.0019580817   0.00196       -0.0065389957   0.002129804   -73.790015     -79.497508      75.159915     -8.0453925     -9.9048289      14.687962      0.0019580817  -0.0065604685   0.0021275391   64.718221      62.855474      54.58879       1              222061.44      1.2391332     -1276069.6      12636.938      8549.1714      906.64632          21924       36303       53175       13773 
    100000  -1299196.7      17937.067      299.93094     -1281259.6     -815.46212      999.62851      284.84353      1582.2109      1131.8311      0.0019980027   0.002         -0.0044791229   0.00056347369 -28.861871     -160.31763     -114.68288     -24.973749     -0.58538519    -18.86631       0.0019980027  -0.0044891842   0.000563315    64.720805      62.9858        54.503468      1              222182.93      1.2384556     -1276118.6      12620.358      8462.1742      893.72599          21924       36303       53175       13773 
    102000  -1299052.4      17707.271      296.08845     -1281345.1     -857.7829       163.96759      226.9758      -285.3659       550.29285      0.002037922    0.00204       -0.0024989714   9.7374839e-05 -22.998474      28.914546     -55.758573     -8.5033753      12.338165     -6.1315463      0.002037922   -0.002502099    9.7370098e-05  64.723388      63.111083      54.478078      1              222530.05      1.2365238     -1275990.2      12609.681      8530.4957      888.64859          21924       36303       53175       13773 
    104000  -1298998.3      17807.486      297.76417     -1281190.8     -874.60254      468.17592      787.41113     -340.97206      958.08871      0.0020778398   0.00208       -0.00051383232 -0.00019723219 -79.782583      34.550853     -97.076445     -9.658773       0.51383256     5.3764059      0.0020778398  -0.00051396438 -0.00019725164  64.725972      63.236681      54.46203       1              222916.12      1.2343823     -1276057.4      12672.795      8596.6536      901.6627           21924       36303       53175       13773 
    106000  -1298941        17909.348      299.46744     -1281031.7     -846.1593      -487.86738     -281.11217     -814.41017     -368.07982      0.002117756    0.00212        0.00041649226 -0.0016874046   28.482736      82.519159      37.294736      4.070063       24.822405      1.8957215      0.002117756    0.00041640555 -0.0016888299   64.728556      63.295542      54.380857      1              222799.95      1.2350259     -1276041.1      12690.888      8593.8645      909.60832          21924       36303       53175       13773 
    108000  -1299131.2      17732.093      296.50351     -1281399.1     -820.24917     -46.580277      104.05554     -429.92029      186.12392      0.0021576706   0.00216       -0.0008182026  -0.0033041017  -10.542965      43.562145     -18.858541     -13.370532      7.9685212     -3.2416122      0.0021576706  -0.00081853751 -0.0033095723   64.731139      63.217424      54.292791      1              222173.48      1.2385083     -1276041.5      12592.87       8489.1095      881.12834          21924       36303       53175       13773 
    110000  -1299176.1      17978.047      300.61616     -1281198       -871.05872      628.39026      650.51036      580.07521      654.58523      0.0021975835   0.0022        -0.0028296239  -0.0023072961  -65.912322     -58.775494     -66.32522      -44.075711     -1.1590086     -29.376761      0.0021975835  -0.0028336348  -0.002309962    64.733723      63.090163      54.347089      1              221956.83      1.2397172     -1276067.6      12541.841      8601.5298      874.68123          21924       36303       53175       13773 
    112000  -1298945.9      17754.049      296.87063     -1281191.8     -765.68692     -549.95881     -239.03487     -69.9541       -1340.8875      0.0022374949   0.00224       -0.0055100253   0.00044957306  24.219634      7.0875295      135.86485     -12.429356     -5.8217726      10.847589      0.0022374949  -0.0055252615   0.00044947203  64.736307      62.920576      54.497264      1              221980.74      1.2395837     -1276145.7      12657.046      8631.7413      899.87401          21924       36303       53175       13773 
    114000  -1299146.2      17775.897      297.23597     -1281370.3     -816.7828       299.53615      78.32676       1182.767      -362.48528      0.0022774047   0.00228       -0.0076435211   0.0018932554  -7.9371502     -119.84455      36.728143      22.252195     -1.7621343      0.2558946      0.0022774047  -0.0076728825   0.0018914654   64.73889       62.785591      54.575905      1              221833.02      1.2404091     -1276060.6      12608.488      8512.101       879.04537          21924       36303       53175       13773 
    116000  -1298958.5      17701.92       295.99897     -1281256.6     -798.58114      80.734884      502.89701      442.27312     -702.96548      0.002317313    0.00232       -0.0085377157   0.0033598048  -50.95434      -44.811634      71.229667     -16.527736     -17.031368     -1.3069951      0.002317313   -0.0085743707   0.0033541733   64.741474      62.729016      54.655792      1              221966.41      1.2396637     -1275994.6      12629.701      8562.9621      891.95835          21924       36303       53175       13773 
    118000  -1298831.1      17835.467      298.23205     -1280995.6     -793.14582      311.24053      179.3822       530.24548      224.09392      0.0023572196   0.00236       -0.0072768663   0.0059286578  -18.176454     -53.727677     -22.706861     -3.4649947     -14.079836     -17.003103      0.0023572196  -0.0073034718   0.0059111525   64.744058      62.808789      54.795725      1              222826.59      1.2348782     -1275977        12644.449      8609.4065      897.96049          21924       36303       53175       13773 
    120000  -1299070.9      17824.489      298.04848     -1281246.5     -842.06764     -1670.1013     -2236.5384     -497.50354     -2276.2621      0.0023971246   0.0024        -0.0062464241   0.0074965384   226.61713      50.409421      230.64214     -5.2846153      5.0854869      30.899334      0.0023971246  -0.0062660146   0.007468579    64.746641      62.873984      54.881131      1              223414.46      1.2316289     -1276031.1      12573.947      8523.5111      895.36101          21924       36303       53175       13773 
    122000  -1299005.6      17817.537      297.93224     -1281188       -822.1163      -629.28519     -404.01451     -259.85831     -1223.9828      0.002437028    0.00244       -0.0049821249   0.0059582031   40.937201      26.330579      124.02048      11.017984     -11.602368      21.136159      0.002437028   -0.0049945771   0.0059405232   64.749225      62.953976      54.797334      1              223366.05      1.2318958     -1276050.6      12648.053      8531.6984      891.01874          21924       36303       53175       13773 
    124000  -1299001.9      17957.986      300.28073     -1281043.9     -882.52358      246.34703      165.15353      278.6424       295.24515      0.0024769299   0.00248       -0.0039658542   0.0040392621  -16.734208     -28.233468     -29.915741     -6.8537477      3.8900483     -5.9084865      0.0024769299  -0.0039737391   0.0040311261   64.751809      63.018274      54.692804      1              223176.57      1.2329417     -1276006.6      12721.904      8519.983       856.09829          21924       36303       53175       13773 
    126000  -1298992.1      17635.076      294.88126     -1281357       -863.82352     -328.56504      179.404       -63.307205     -1101.7919      0.0025168301   0.00252       -0.0037894653   0.0018579444  -18.179754      6.412967       111.63746      7.0158049      21.635293      19.971904      0.0025168301  -0.0037966635   0.0018562206   64.754392      63.029434      54.573982      1              222740.03      1.2353581     -1275968.3      12672.189      8503.1796      865.81308          21924       36303       53175       13773 
    128000  -1299051.3      17781.957      297.3373      -1281269.4     -934.20253     -466.82294     -587.29201     -856.1382       42.961387      0.0025567288   0.00256       -0.0044016692   0.00019982306  59.509092      86.749956     -4.3513425     -8.5901969      2.6679419     -8.0757854      0.0025567288  -0.0044113851   0.0001998031   64.756976      62.990701      54.483659      1              222243.6       1.2381176     -1275993.1      12614.859      8559.2413      894.51225          21924       36303       53175       13773 
    130000  -1298901        18051.582      301.84577     -1280849.4     -827.5233       135.95193      328.21255      164.85142     -85.208174      0.0025966258   0.0026        -0.0048890184  -0.00021366927 -33.253406     -16.70086       8.6364262     -29.60904      -2.1111279     -4.6845607      0.0025966258  -0.0049010087  -0.0002136921   64.75956       62.959866      54.461135      1              222051.84      1.2391868     -1275939.8      12658.361      8539.6256      897.72685          21924       36303       53175       13773 
    132000  -1298914.6      18016.935      301.26643     -1280897.7     -857.8561       231.50686     -765.0716       618.79331      840.79889      0.0026365213   0.00264       -0.0048066895   0.0010373159   77.517613     -62.702528     -85.197213     -44.268848     -12.516117     -15.987887      0.0026365213  -0.0048182788   0.0010367783   64.762143      62.965075      54.52928       1              222356.95      1.2374864     -1275957.3      12735.494      8546.5099      875.65747          21924       36303       53175       13773 
    134000  -1298912.3      17614.431      294.53605     -1281297.9     -873.9054       358.55111     -213.19351      642.29249      646.55436      0.0026764152   0.00268       -0.0046503134   0.0019933867   21.600232     -65.081878     -65.513719      14.44075       2.8904784      9.3365935      0.0026764152  -0.0046611598   0.0019914026   64.764727      62.974969      54.581359      1              222613.17      1.2360621     -1276077        12663.736      8712.1975      889.58727          21924       36303       53175       13773 
    136000  -1299066.3      17801.124      297.65779     -1281265.2     -751.26944      680.8855       1001.7777      132.90011      907.97868      0.0027163075   0.00272       -0.0059219562   0.0012856905  -101.50362     -13.464565     -91.999453     -13.462632      12.37512       15.779892      0.0027163075  -0.0059395606   0.0012848647   64.767311      62.894513      54.542809      1              222180.6       1.2384687     -1276050.2      12617.818      8482.4345      887.03895          21924       36303       53175       13773 
    138000  -1299107.8      18072.055      302.18811     -1281035.8     -969.98099      134.30542      608.07174      148.46337     -353.61885      0.0027561982   0.00276       -0.0065358523   0.00038828558 -61.612877     -15.043059      35.830422     -2.4361379     -20.553972     -12.72728       0.0027561982  -0.0065573045   0.00038821022  64.769894      62.855673      54.493925      1              221853.23      1.2402961     -1276028.3      12587.732      8616.8976      881.02822          21924       36303       53175       13773 
    140000  -1299117.2      17709.786      296.1305      -1281407.4     -885.49871      506.31735      506.34116      10.394583      1002.2163      0.0027960873   0.0028        -0.0066128009  -4.0894449e-05 -51.305834     -1.0540607     -101.55038      6.1116706      20.481776      7.1068181      0.0027960873  -0.0066347624  -4.0895286e-05  64.772478      62.850804      54.470547      1              221749.72      1.2408751     -1276154.5      12631.77       8588.883       892.51998          21924       36303       53175       13773 
    142000  -1299126.1      17938.171      299.94938     -1281187.9     -856.41014      122.08184     -633.5464       642.17461      357.6173       0.0028359748   0.00284       -0.0076506288  -0.00049510551  64.196194     -65.066196     -36.233506      5.024028      -8.2901684     -12.089499      0.0028359748  -0.007680045   -0.00049522812  64.775062      62.785142      54.445804      1              221426.26      1.2426877     -1276015.7      12623.235      8454.8981      894.50887          21924       36303       53175       13773 
    144000  -1299020.4      17856.525      298.58416     -1281163.8     -796.56345      366.97548      231.13338      113.24355      756.54951      0.0028758607   0.00288       -0.0070176497   0.00019069279 -23.420668     -11.475504     -76.658468     -1.3502614     -6.0767385     -7.862425       0.0028758607  -0.0070423892   0.00019067461  64.777645      62.82519       54.483162      1              221728.37      1.2409946     -1276034.7      12685.116      8445.7797      898.88648          21924       36303       53175       13773 
    146000  -1299117.6      17785.414      297.3951      -1281332.2     -824.10345      592.32577      1069.7846     -18.678541      725.87122      0.0029157451   0.00292       -0.0063314734   0.0019909779  -108.39657      1.8919628     -73.549533      2.6385905     -8.8423993     -13.742219      0.0029157451  -0.0063516022   0.0019889985   64.780229      62.868603      54.581228      1              222289.83      1.2378601     -1276080        12657.835      8515.2922      857.91477          21924       36303       53175       13773 
    148000  -1299063.8      17698.595      295.94338     -1281365.2     -872.76567     -335.52347      11.451573     -339.03984     -678.98215      0.0029556278   0.00296       -0.005225007    0.0043436973  -1.1591338      34.354419      68.799038     -4.4478159      14.05721       11.763947      0.0029556278  -0.0052387051   0.0043342907   64.782813      62.938609      54.709387      1              223068.78      1.2335375     -1276028.5      12698.26       8496.3986      869.64584          21924       36303       53175       13773 
    150000  -1298988.6      17902.428      299.35173     -1281086.1     -783.02153      1142.9437      1005.6363      1411.3402      1011.8544      0.002995509    0.003         -0.0057991061   0.0042023279  -101.89558     -143.00353     -102.52564      4.7483608      3.6390224      6.289334       0.002995509   -0.0058159862   0.0041935228   64.785396      62.902286      54.701687      1              222917.55      1.2343743     -1276111.3      12738.262      8529.8997      894.86014          21924       36303       53175       13773 
    152000  -1299038.1      17724.752      296.38075     -1281313.3     -788.23661      812.19324      1016.1939      503.03462      917.35121      0.0030353885   0.00304       -0.0058539161   0.0045498755  -102.96903     -50.97316      -92.953827     -3.5284922      6.0278545      14.533743      0.0030353885  -0.0058711174   0.0045395561   64.78798       62.898818      54.720619      1              222991.3       1.2339661     -1276005.2      12649.843      8483.6644      872.68273          21924       36303       53175       13773 
    154000  -1299097.7      17734.431      296.5426      -1281363.3     -696.63356      1269.3237      1378.4852      1396.0843      1033.4015      0.0030752665   0.00308       -0.0062884947   0.0031317577  -139.6731      -141.45633     -104.70751      5.1410532     -7.4336995      6.0782168      0.0030752665  -0.0063083506   0.0031268639   64.790564      62.871323      54.64337       1              222588.04      1.2362016     -1276110.3      12607.299      8475.4262      883.81101          21924       36303       53175       13773 
    156000  -1298935.3      17802.74       297.68481     -1281132.6     -757.72904      330.64639      370.88296      897.29433     -276.23812      0.0031151429   0.00312       -0.0058986864   0.0017193686  -37.5797       -90.918332      27.989844     -21.82749      -7.7031147     -17.019901      0.0031151429  -0.0059161524   0.0017178922   64.793147      62.895986      54.566433      1              222370.7       1.2374099     -1276040.1      12716.26       8447.4402      896.15602          21924       36303       53175       13773 
    158000  -1299057.1      17886.361      299.08306     -1281170.7     -849.60276      287.48207      614.61152     -1336.256       1584.0907      0.0031550177   0.00316       -0.0035803945   0.002052254   -62.275522      135.39613     -160.508       -25.004106     -0.20358857    -2.400052       0.0031550177  -0.0035868195   0.002050151    64.795731      63.042662      54.584566      1              222972.24      1.2340716     -1276110.9      12634.564      8571.7557      904.09616          21924       36303       53175       13773 
    160000  -1299092.9      17707.685      296.09536     -1281385.2     -783.49143     -113.35446      664.919        100.63819     -1105.6206      0.0031948909   0.0032        -0.002218614    0.0022443463  -67.373979     -10.198223      112.02596     -0.9735015      9.3845676      11.708575      0.0031948909  -0.0022210788   0.0022418315   64.798315      63.128821      54.59503       1              223328.68      1.232102      -1275996.4      12484.689      8534.6045      894.3861           21924       36303       53175       13773 
    162000  -1299057.5      17868.06       298.77705     -1281189.5     -721.2302       90.632226     -207.87929      1486.3629     -1006.5869      0.0032347625   0.00324       -0.0023140746   0.00035921527  21.065657     -150.60343      101.99468     -0.79871906     15.64442       11.503437      0.0032347625  -0.0023167562   0.00035915077  64.800898      63.122781      54.492342      1              222896.18      1.2344927     -1275998.9      12508.323      8511.0341      867.67517          21924       36303       53175       13773 
    164000  -1298942.4      17787.277      297.42625     -1281155.1     -892.05043      219.95346     -263.26834      543.2151       379.91362      0.0032746325   0.00328       -0.0031467351  -0.0030322791   26.674823     -55.042142     -38.495621      7.1526165      7.4955081     -4.6104531      0.0032746325  -0.0031516965  -0.0030368857   64.803482      63.070099      54.307598      1              221963.95      1.2396774     -1276037.6      12651.036      8675.8827      904.30171          21924       36303       53175       13773 
    166000  -1299203.1      17725.252      296.3891      -1281477.8     -935.27161     -259.35427     -220.35203     -322.81693     -234.89385      0.003314501    0.00332       -0.0043216809  -0.0056247663   22.324823      32.707041      23.798233     -20.810796     -21.892412     -27.409771      0.003314501   -0.0043310463  -0.0056406448   64.806066      62.995761      54.166378      1              221134.64      1.2443266     -1276066.8      12548.657      8588.935       875.86302          21924       36303       53175       13773 
    168000  -1299368.4      17618.961      294.61179     -1281749.4     -899.52211     -460.33265      97.144005     -356.50536     -1121.6366      0.0033543678   0.00336       -0.0031932564  -0.0046983423  -9.8394669      36.126586      113.65352     -46.014773     -19.041244     -39.097652      0.0033543678  -0.0031983657  -0.0047094142   64.808649      63.067156      54.216842      1              221600.35      1.2417115     -1276113.4      12494.688      8465.0917      861.78933          21924       36303       53175       13773 
    170000  -1299196.8      17932.665      299.85733     -1281264.2     -787.95744      391.26113     -177.22476      1665.629      -314.62081      0.0033942331   0.0034        -0.0021931587  -0.0022978988   17.959758     -168.76739      31.881426     -23.929711      15.251155      11.487358      0.0033942331  -0.0021955672  -0.0023005431   64.811233      63.130431      54.347601      1              222366.53      1.2374331     -1276069.4      12486.065      8470.8073      899.47422          21924       36303       53175       13773 
    172000  -1299002.4      17909.076      299.46288     -1281093.3     -825.51531     -1050.4326     -1890.3328     -674.96117     -586.00394      0.0034340967   0.00344       -0.0019490963  -4.3322661e-05  191.53775      68.390213      59.376625     -2.5080191      13.32598      -0.36580791     0.0034340967  -0.0019509982  -4.3323599e-05  64.813817      63.145873      54.470414      1              222932.43      1.234292      -1276000        12662.837      8494.7228      900.94703          21924       36303       53175       13773 
    174000  -1299112.6      17761.138      296.98917     -1281351.5     -832.37185     -488.38262      367.96409     -808.91752     -1024.1944      0.0034739588   0.00348       -0.0023214964   0.00080728021 -37.285063      81.962487      103.7754       4.3459938      2.1716122      13.594148      0.0034739588  -0.0023241953   0.00080695454  64.8164        63.122311      54.516749      1              223047.7       1.2336541     -1276095.9      12537.305      8587.3905      894.84958          21924       36303       53175       13773 
    176000  -1299110.7      18037.808      301.61546     -1281072.9     -835.67668     -844.78342     -735.92663     -139.66224     -1658.7614      0.0035138193   0.00352       -0.0023202546   0.0013041816   74.570213      14.153667      168.07639     -25.568504     -10.237394     -8.2284134      0.0035138193  -0.0023229505   0.0013033318   64.818984      63.12239       54.543817      1              223167.62      1.2329912     -1276183.9      12573.842      8634.0981      889.81938          21924       36303       53175       13773 
    178000  -1299051.8      17906.74       299.42382     -1281145.1     -771.71577     -305.14688     -192.20534      279.72772     -1002.963       0.0035536782   0.00356       -0.00098622969  0.0011380056   19.473423     -28.345186      101.62345      3.2595738     -15.683611      22.754116      0.0035536782  -0.00098671634  0.0011373586   64.821568      63.206793      54.534764      1              223437.84      1.2315        -1276068.3      12507.619      8619.2748      896.22817          21924       36303       53175       13773 
    180000  -1299101.7      17790.282      297.47649     -1281311.4     -819.20529      132.10952      137.04925     -354.84794      614.12726      0.0035935355   0.0036         0.00083941815  0.0003506202  -13.886307      35.955177     -62.226238     -12.375122      10.014758     -7.3503453      0.0035935355   0.00083906604  0.00035055875  64.824151      63.3223        54.491873      1              223679.02      1.2301721     -1276091.4      12672.141      8462.8246      877.11571          21924       36303       53175       13773 
    182000  -1298981.8      18068.794      302.13358     -1280913       -865.53801     -581.65815      31.778045     -528.34551     -1248.407       0.0036333912   0.00364        0.00072445404 -0.0012447582  -3.2204486      53.534091      126.49431     -0.46843147     13.918231      9.4230423      0.0036333912   0.00072419175 -0.0012455335   64.826735      63.315026      54.404969      1              223305.54      1.2322296     -1276036.2      12690.202      8524.8577      900.47715          21924       36303       53175       13773 
    184000  -1298919        17668.677      295.44311     -1281250.3     -897.11012     -505.23702     -907.62845      289.47423     -897.55682      0.0036732454   0.00368       -0.0011758598  -0.001987027    91.964072     -29.332354      90.943568     -12.288541      7.3909631     -23.122122      0.0036732454  -0.0011765516  -0.0019890038   64.829319      63.194795      54.364535      1              222724.73      1.235443      -1275906.2      12646.444      8591.4148      867.34127          21924       36303       53175       13773 
    186000  -1298941.4      17594.353      294.20031     -1281347       -893.8004       139.93629      226.02997     -17.720185      211.4991       0.0037130979   0.00372       -0.0024979363  -0.0015324728  -22.902385      1.7955983     -21.430047     -18.564256     -2.6093504      0.034700217    0.0037130979  -0.0025010614  -0.0015336482   64.831902      63.111148      54.389296      1              222540.1       1.2364679     -1275993.2      12628.16       8635.8127      883.09763          21924       36303       53175       13773 
    188000  -1298899.7      17862.589      298.68557     -1281037.1     -826.85671      203.23759      701.93244      45.920614     -138.14028      0.0037529489   0.00376       -0.0032394488  -0.0015449016  -71.122261     -4.6518512      13.99811      -29.435856     -7.3869556      9.7777612      0.0037529489  -0.0032447071  -0.0015460962   64.834486      63.064233      54.388619      1              222380.77      1.2373539     -1275983.6      12675.273      8591.7209      872.11632          21924       36303       53175       13773 
    190000  -1299001.1      17701.344      295.98934     -1281299.7     -862.12761      422.03324      402.52337      866.52123     -2.944882       0.0037927982   0.0038        -0.0033976608  -0.0019775137  -40.786857     -87.801415      0.29721455    -10.812596      6.3540526      11.70242       0.0037927982  -0.0034034459  -0.0019794715   64.83707       63.054223      54.365054      1              222257.99      1.2380374     -1276044.4      12772.483      8484.9267      876.86418          21924       36303       53175       13773 
    192000  -1299013.6      17749.996      296.80287     -1281263.6     -864.36346      279.02426     -523.20308      256.59591      1103.6799      0.003832646    0.00384       -0.0031362084  -0.0032217791   53.014463     -25.998685     -111.82947     -27.729011     -9.720444      -4.4714545      0.003832646   -0.0031411366  -0.0032269802   64.839653      63.070765      54.297275      1              222047.98      1.2392083     -1276089.4      12688.057      8600.9381      882.63121          21924       36303       53175       13773 
    194000  -1298798.3      17865.115      298.7278      -1280933.2     -824.00608     -152.61084      185.21175     -454.009       -189.03528      0.0038724922   0.00388       -0.002285092   -0.0037836321  -18.763281      46.005828      19.157305     -35.913464     -7.013507      -9.8600362      0.0038724922  -0.0022877068  -0.0037908082   64.842237      63.124615      54.266669      1              222121.14      1.2388002     -1275941.4      12691.906      8596.3424      887.54559          21924       36303       53175       13773 
    196000  -1298941.3      17974.883      300.56326     -1280966.4     -862.4128       34.524414      279.4384       233.15284     -409.01799      0.0039123368   0.00392       -0.0011229201  -0.0031809682  -28.316722     -23.626802      41.44109      -43.100068      3.1809386     -19.081091      0.0039123368  -0.001123551   -0.0031860382   64.844821      63.198144      54.299498      1              222523.27      1.2365615     -1275960.2      12670.669      8522.0176      906.43159          21924       36303       53175       13773 
    198000  -1299083.5      17817.985      297.93972     -1281265.6     -825.14046     -765.86904     -268.17383     -1555.3146     -474.11869      0.0039521798   0.00396       -0.0018547786  -0.00091349202  27.171355      157.5909       48.038728      24.613013      32.340983      12.261189      0.0039521798  -0.0018565008  -0.00091390951  64.847404      63.15184       54.423014      1              222874.92      1.2346105     -1276061.3      12650.696      8481.7172      910.97252          21924       36303       53175       13773 
    200000  -1299062.5      17677.562      295.59168     -1281385       -782.12529      112.12516     -26.13461       1264.5074     -901.99729      0.0039920213   0.004         -0.0060093365   0.0019253679   2.6484812     -128.12582      91.395268     -10.071692      0.22081633    -1.3428425      0.0039920213  -0.0060274652   0.0019235167   64.849988      62.888985      54.577654      1              222586.77      1.2362087     -1276083.2      12657.218      8479.0315      890.9996           21924       36303       53175       13773 
    202000  -1298953        17941.934      300.01231     -1281011.1     -791.9182       703.95699      760.17508      1037.5424      314.15353      0.0040318611   0.00404       -0.0084050905   0.0039359511  -77.024634     -105.12887     -31.8315       -26.80588      -18.083125     -6.3481971      0.0040318611  -0.0084406125   0.0039282255   64.852572      62.737407      54.687176      1              222504.74      1.2366645     -1275996.6      12618.071      8548.7616      892.42936          21924       36303       53175       13773 
    204000  -1298953.4      17710.727      296.14623     -1281242.7     -778.9016      -110.2474       1083.4444     -360.75575     -1053.4309      0.0040716994   0.00408       -0.0085446727   0.0058521176  -109.78164      36.551945      106.73725     -4.9024        -25.472278      11.829799      0.0040716994  -0.0085813877   0.0058350605   64.855155      62.728576      54.791555      1              222906.93      1.2344332     -1276138.1      12781.997      8528.0619      911.38794          21924       36303       53175       13773 
    206000  -1299164.1      17850.929      298.4906      -1281313.2     -927.02509     -256.43651      220.21265     -680.02129     -309.50089      0.004111536    0.00412       -0.0081553967   0.0058299191  -22.312644      68.903565      31.360587      33.518519      25.078698      34.108651      0.004111536   -0.0081888339   0.0058129909   64.857739      62.753205      54.790346      1              222998.41      1.2339268     -1276067.2      12601.312      8568.437       870.03721          21924       36303       53175       13773 
    208000  -1298996.7      17797.499      297.59718     -1281199.2     -836.06915      276.49466      35.251012      288.40165      505.83133      0.0041513711   0.00416       -0.009008053    0.0031829349  -3.5710561     -29.221555     -51.252611     -27.34602      -10.137889      1.6460045      0.0041513711  -0.0090488708   0.0031778801   64.860323      62.699258      54.646157      1              222229.21      1.2381977     -1276044.4      12607.914      8574.1983      902.40617          21924       36303       53175       13773 
    210000  -1298940.1      17871.472      298.8341      -1281068.6     -808.5355       174.51017      395.13759      186.48006     -58.087156      0.0041912046   0.0042        -0.0083776991   0.0014449588  -40.03687      -18.894653      5.8861215     -17.030075     -16.353603     -14.147889      0.0041912046  -0.0084129892   0.0014439158   64.862906      62.73914       54.551485      1              221994.16      1.2395088     -1276095        12573.171      8693.5345      898.33334          21924       36303       53175       13773 
    212000  -1299036.8      17764.899      297.05206     -1281271.9     -845.90508      329.77548      69.460583      253.8766       665.98926      0.0042310365   0.00424       -0.0060450178   0.0020395233  -7.0397843     -25.725755     -67.483058     -8.9730011     -11.145524     -16.603089      0.0042310365  -0.0060633629   0.0020374463   64.86549       62.886727      54.583873      1              222657.35      1.2358168     -1276065.3      12672.687      8521.4044      878.82574          21924       36303       53175       13773 
    214000  -1299103.6      17846.943      298.42395     -1281256.7     -852.24136     -86.834874     -187.37811     -628.38347      555.25697      0.0042708669   0.00428       -0.0062351485   0.0012694659   18.989087      63.673929     -56.258387      14.762618      20.932708      32.644447      0.0042708669  -0.0062546683   0.0012686608   64.868074      62.874698      54.541925      1              222452.54      1.2369546     -1276182.3      12683.228      8545.8405      892.92012          21924       36303       53175       13773 
    216000  -1298930        17900.698      299.3228      -1281029.3     -801.51967     -22.986982      322.97265      5.6179847     -397.55158      0.0043106956   0.00432       -0.0061227283  -0.0010289002  -32.726587     -0.5706248      40.280542      8.6343917     -13.615636     -5.2059248      0.0043106956  -0.0061415491  -0.0010294299   64.870657      62.881811      54.416727      1              221975.86      1.2396109     -1276094.7      12670.266      8652.173       891.12424          21924       36303       53175       13773 
    218000  -1299083.2      17802.487      297.68058     -1281280.7     -832.25403      1034.5495      1817.2846      368.09891      918.265        0.0043505227   0.00436       -0.0062545281  -0.0020210827  -184.13731     -37.298575     -93.044157     -32.468308      1.900968      -20.352692      0.0043505227  -0.0062741696  -0.0020231278   64.873241      62.873472      54.36268       1              221734.82      1.2409585     -1276140.3      12711.097      8526.1366      885.29146          21924       36303       53175       13773 
    220000  -1299147        17901.621      299.33823     -1281245.4     -875.06757      319.66934      874.40586     -220.87704      305.4792       0.0043903483   0.0044        -0.0051364615  -0.00093545629 -88.598533      22.381009     -30.952046      12.923062     -6.2012556     -9.6458198      0.0043903483  -0.0051496984  -0.0009358941   64.875825      62.944211      54.421817      1              222234.62      1.2381676     -1276125.5      12660.176      8550.2311      895.31146          21924       36303       53175       13773 
    222000  -1299065.3      17845.523      298.4002      -1281219.8     -862.9381       326.39209      509.02745      37.14972       432.99911      0.0044301723   0.00444       -0.003975384    0.00057089452 -51.577509     -3.7645054     -43.87395      -18.688931      20.247947      11.94176       0.0044301723  -0.0039833068   0.00057073162  64.878408      63.017671      54.503872      1              222838.33      1.2348132     -1276098.6      12728.877      8492.145       885.03362          21924       36303       53175       13773 
    224000  -1299006.1      17875.917      298.90842     -1281130.2     -835.87231      656.31025      669.98364      854.79881      444.14831      0.0044699947   0.00448       -0.0055756337   0.00043199219 -67.884859     -86.611264     -45.002103     -2.8713101      11.947125      7.0728716      0.0044699947  -0.0055912356   0.0004318989   64.880992      62.916425      54.496306      1              222458.28      1.2369227     -1275995.4      12696.627      8499.3275      878.91238          21924       36303       53175       13773 
    226000  -1298830.9      17848.378      298.44793     -1280982.6     -804.68959      661.39389      333.54037      1043.8633      606.77797      0.0045098155   0.00452       -0.0081393298   0.00053298286 -33.797175     -105.77065     -61.482958     -19.866012     -4.4940078     -18.524228      0.0045098155  -0.008172635    0.00053284088  64.883576      62.754222      54.501807      1              221916.01      1.2399453     -1275979.7      12715.295      8622.3034      884.41833          21924       36303       53175       13773 
    228000  -1299144.1      17817.253      297.92748     -1281326.9     -859.58825      605.71616      1352.3501      788.67643     -323.878        0.0045496347   0.00456       -0.0098097964   0.0017958394  -137.02698     -79.912752      32.816827     -31.019346     -4.9313926     -11.699012      0.0045496347  -0.0098582295   0.0017942288   64.886159      62.648533      54.570599      1              221830.72      1.240422      -1276151.8      12660.61       8579.6868      862.82187          21924       36303       53175       13773 
    230000  -1298956.6      17832.785      298.1872      -1281123.8     -773.64572     -118.50307     -639.29879      1035.4066     -751.61698      0.0045894523   0.0046        -0.0092048532   0.0038270025   64.778921     -104.91062      76.159569     -9.0596537     -15.45956       8.734691       0.0045894523  -0.0092474797   0.0038196981   64.888743      62.686807      54.681242      1              222425.14      1.237107      -1276061.3      12669.758      8559.7277      860.07867          21924       36303       53175       13773 
    232000  -1298901        18061.654      302.01419     -1280839.3     -883.0937       14.49989       1280.3787     -579.09465     -657.78439      0.0046292684   0.00464       -0.0085206411   0.0042525803  -129.7365       58.674631      66.647941     -14.120229      14.529449      13.06235       0.0046292684  -0.0085571492   0.0042435636   64.891327      62.730097      54.704424      1              222681.97      1.2356802     -1276017.1      12829.514      8482.1773      877.91489          21924       36303       53175       13773 
    234000  -1299179.3      17871.162      298.82891     -1281308.2     -826.29227     -503.27628     -427.57844     -765.0541      -317.19631      0.0046690828   0.00468       -0.0091542694   0.003359144    43.323428      77.518137      32.138947      15.3434       -3.6522888      21.33246       0.0046690828  -0.0091964272   0.0033535147   64.89391       62.690007      54.655756      1              222350.53      1.2375221     -1276243.9      12751.478      8448.2672      879.40657          21924       36303       53175       13773 
    236000  -1299018.6      17755.666      296.89766     -1281262.9     -810.24193      67.48009      -20.038315      620.20343     -397.72485      0.0047088957   0.00472       -0.0094374987   0.00098271613  2.0320129     -62.84052       40.301097      10.260306     -8.8132389      6.824977       0.0047088957  -0.0094823141   0.00098223358  64.896494      62.672088      54.526305      1              221769.32      1.2407654     -1276033.8      12791.61       8395.2635      858.00594          21924       36303       53175       13773 
    238000  -1298946.8      17933.313      299.86815     -1281013.4     -870.37223      332.78702      578.66165     -90.714471      510.41389      0.004748707    0.00476       -0.0079868757  -0.0003872718  -58.633648      9.1909083     -51.718427      2.5030652     -24.841728     -25.311093      0.004748707   -0.0080189416  -0.0003873468   64.899078      62.763867      54.451678      1              221798.95      1.2405997     -1276015.7      12733.824      8555.7714      869.47931          21924       36303       53175       13773 
    240000  -1299001.4      17634.61       294.87345     -1281366.8     -870.04339     -7.5432897      555.87362     -762.54058      184.0371       0.0047885167   0.0048        -0.0062181231  -0.0014645201  -56.323808      77.264511     -18.647472     -14.58261       3.9908886     -0.40255988     0.0047885167  -0.0062375361  -0.0014655936   64.901661      62.875775      54.392998      1              221963.8       1.2396783     -1276073.7      12698.761      8559.0013      904.89553          21924       36303       53175       13773 
    242000  -1299051.3      17810.148      297.80868     -1281241.1     -833.07107     -31.143677     -346.22287     -463.92475      716.71659      0.0048283249   0.00484       -0.0048940554  -0.0018403899   35.082247      47.008427     -72.620083     -10.784783      15.087734      1.1344624      0.0048283249  -0.0049060705  -0.0018420855   64.904245      62.959548      54.372523      1              222184.72      1.2384457     -1275984.4      12662.725      8463.0238      877.48679          21924       36303       53175       13773 
    244000  -1299140.1      18149.789      303.48792     -1280990.3     -777.44489      329.8795       295.97985      618.29698      75.361665      0.0048681314   0.00488       -0.002921415   -0.0013124251  -29.989074     -62.647862     -7.6349605     -20.331318     -24.065978     -5.7537879      0.0048681314  -0.0029256906  -0.0013132871   64.906829      63.084355      54.401283      1              222751.79      1.2352929     -1276147        12595.999      8529.5738      877.45588          21924       36303       53175       13773 
    246000  -1299018.9      17803.159      297.69182     -1281215.8     -866.10887     -867.18457     -1285.6506     -224.35521     -1091.5479      0.0049079364   0.00492       -0.001347883   -0.0014296637   130.26589      22.730162      110.59844      19.18098       33.11719       19.42008       0.0049079364  -0.0013487922  -0.0014306866   64.909412      63.183911      54.394896      1              223086.01      1.2334422     -1276070.6      12758.243      8468.0508      886.06194          21924       36303       53175       13773 
    248000  -1299236.3      17928.252      299.78353     -1281308.1     -787.93975     -334.47977     -871.89017     -702.3774       570.82826      0.0049477397   0.00496       -0.0014675951  -0.0037387038   88.345347      71.169461     -57.838096     -35.766106     -5.0223063      20.584445      0.0049477397  -0.001468673   -0.0037457102   64.911996      63.176337      54.269117      1              222552.34      1.2364        -1276136.9      12558.344      8457.9572      872.09096          21924       36303       53175       13773 
    250000  -1298904.4      17944.185      300.04996     -1280960.3     -817.99645     -174.24954     -287.23893     -538.02642      302.51672      0.0049875415   0.005         -0.00089327627 -0.0039042086   29.10611       54.517156     -30.650866     -9.1129412     -7.0440966     -36.019818      0.0049875415  -0.00089367548 -0.0039118499   64.91458       63.212674      54.260101      1              222652.21      1.2358454     -1275987.1      12622.733      8584.7346      884.47287          21924       36303       53175       13773 
    252000  -1299156.8      17870.103      298.81121     -1281286.7     -762.22341     -407.94907     -896.59626     -302.64144     -24.609506      0.0050273417   0.00504       -0.0013027894  -0.0026636016   90.846053      30.66355       2.491951      -15.31002      -3.765326      -9.2340556      0.0050273417  -0.0013036388  -0.0026671553   64.917163      63.186764      54.32768       1              222847.01      1.2347651     -1276081        12507.689      8528.0595      876.90664          21924       36303       53175       13773 
    254000  -1299117.4      17830.814      298.15425     -1281286.6     -763.26327     -377.13311     -381.83877     -477.46851     -272.09206      0.0050671403   0.00508       -0.0013974322  -0.0011100937   38.691173      48.380836      27.571066      3.3722082      5.8962847     -2.1857129      0.0050671403  -0.0013984096  -0.0011107104   64.919747      63.180776      54.412304      1              223181.86      1.2329125     -1276163        12649.335      8466.9292      904.05185          21924       36303       53175       13773 
    256000  -1299007.7      17985.319      300.73776     -1281022.4     -775.55807     -121.21514      27.998341      126.44554     -518.08931      0.0051069374   0.00512       -0.0025513839   0.0013320841  -2.8368453     -12.812007      52.495486     -15.941405      14.288347     -18.064755      0.0051069374  -0.0025546442   0.0013311977   64.922331      63.107767      54.545336      1              223477.88      1.2312794     -1276019.2      12741.539      8357.615       892.59504          21924       36303       53175       13773 
    258000  -1299095.8      17685.027      295.71649     -1281410.7     -851.88775     -279.29032     -48.372583     -535.20386     -254.2945       0.0051467328   0.00516       -0.0047541864   0.0034085453   4.9008932      54.229083      25.765948      0.99358921     19.620744      9.8567657      0.0051467328  -0.0047655234   0.0034027494   64.924914      62.968397      54.658447      1              223455.64      1.2314019     -1276089.7      12622.084      8561.2082      883.87673          21924       36303       53175       13773 
    260000  -1298967.6      17764.43       297.04422     -1281203.2     -793.55108     -280.1767      -1245.0435      196.81613      207.69731      0.0051865267   0.0052        -0.0068832176   0.0043416172   126.15547     -19.94097      -21.043527      19.544551      5.4266001      9.807574       0.0051865267  -0.0069070162   0.0043322196   64.927498      62.833695      54.709274      1              223193.85      1.2328463     -1276068.7      12682.782      8528.031       903.92251          21924       36303       53175       13773 
    262000  -1298791.2      17750.167      296.80571     -1281041       -778.32314     -176.10793      246.20495     -259.88006     -514.64866      0.005226319    0.00524       -0.0078830644   0.00365021    -24.94718       26.33188       52.146313     -14.424312     -21.003554      7.1562339      0.005226319   -0.0079143      0.0036435641   64.930082      62.770436      54.671611      1              222824.51      1.2348897     -1276018        12684.702      8609.6063      901.19476          21924       36303       53175       13773 
    264000  -1299178.5      17767.445      297.09463     -1281411       -714.44172      386.8173      -634.6854       699.04597      1096.0913      0.0052661097   0.00528       -0.0087582327   0.0031507399   64.308701     -70.831619     -111.06225     -1.8674054     -8.1864115     -6.4411696      0.0052661097  -0.0087968115   0.0031457867   64.932665      62.715064      54.644404      1              222526.02      1.2365462     -1276202.9      12633.28       8450.0963      873.27618          21924       36303       53175       13773 
    266000  -1299042.2      17837.826      298.27149     -1281204.4     -771.3867       1.5968507      364.30468     -672.64157      313.12745      0.0053058988   0.00532       -0.0087457042   0.0031459953  -36.911025      68.157516     -31.725552     -13.225276      11.217353      11.291695      0.0053058988  -0.0087841723   0.003141057    64.935249      62.715857      54.644145      1              222536.63      1.2364872     -1276094.7      12666.84       8519.9402      877.54895          21924       36303       53175       13773 
    268000  -1299096.7      17932.12       299.84821     -1281164.6     -820.68533      619.82595      904.13029      595.30569      360.04187      0.0053456863   0.00536       -0.00856104     0.0026402533  -91.61204      -60.320396     -36.482313     -39.143945     -20.635621     -19.425243      0.0053456863  -0.0085978962   0.0026367739   64.937833      62.727541      54.616596      1              222474.73      1.2368313     -1276161.6      12603.828      8581.2369      911.95102          21924       36303       53175       13773 
    270000  -1299129.3      17844.64       298.38543     -1281284.7     -941.54464      79.788809      0.25065098     254.81619     -15.700412      0.0053854723   0.0054        -0.0079763497   0.0025733546  -0.025527251   -25.819381      1.5907122     -9.4674155      9.6440689      5.297196       0.0053854723  -0.008008331    0.0025700492   64.940416      62.764533      54.612952      1              222599.93      1.2361356     -1276102.7      12585.922      8643.1814      886.6968           21924       36303       53175       13773 
    272000  -1298875.5      17655.619      295.22476     -1281219.8     -811.95071      764.15605      1137.6638      820.02648      334.77789      0.0054252566   0.00544       -0.0075885439   0.0016139573  -115.27313     -83.088512     -33.920699     -18.085179      5.658696       2.9311052      0.0054252566  -0.0076174834   0.0016126563   64.943         62.78907       54.560691      1              222482.7       1.2367869     -1275985.1      12633.415      8606.1456      905.13085          21924       36303       53175       13773 
    274000  -1298893.2      17898.023      299.27806     -1280995.2     -765.94714      807.58307      1259.4962      974.85363      188.39941      0.0054650394   0.00548       -0.0064999115   0.0017811401  -127.61761     -98.77622      -19.088721     -27.440609     -5.8084941     -7.2715352      0.0054650394  -0.0065211279   0.0017795558   64.945584      62.857946      54.569798      1              222772.8       1.2351764     -1276019.9      12602.754      8616.1409      892.57147          21924       36303       53175       13773 
    276000  -1299040.7      17806.169      297.74214     -1281234.5     -870.50888     -291.93506     -521.52423      148.343       -502.62395      0.0055048206   0.00552       -0.0060147423   0.0037417525   52.841045     -15.033272      50.925947     -0.6439272      9.8936122     -7.3861778      0.0055048206  -0.0060329037   0.0037347695   64.948167      62.888643      54.676598      1              223326.68      1.232113      -1276032.5      12676.095      8517.2047      861.14793          21924       36303       53175       13773 
    278000  -1299079.6      17808.452      297.78033     -1281271.1     -727.43396      985.16757      1492.937       837.52531      625.04039      0.0055446003   0.00556       -0.0081647118   0.0041139616  -151.2704      -84.860798     -63.330766     -7.9794291      29.576278      26.819188      0.0055446003  -0.0081982256   0.0041055224   64.950751      62.752616      54.696873      1              222935.13      1.234277      -1276165.9      12547.493      8594.265       887.77113          21924       36303       53175       13773 
    280000  -1298906.7      17950.662      300.15826     -1280956.1     -798.34226     -12.091038      447.55987     -257.11757     -226.71542      0.0055843783   0.0056        -0.010125096    0.003850378   -45.349491      26.051945      22.971448     -9.5734105     -28.40854      -3.3654575      0.0055843783  -0.010176704    0.0038429843   64.953335      62.628584      54.682515      1              222444.94      1.2369969     -1276010        12685.403      8538.9996      900.17145          21924       36303       53175       13773 
    282000  -1299011.4      17819.137      297.95898     -1281192.2     -825.47681      853.47426      407.73087      1344.405       808.28694      0.0056241548   0.00564       -0.010555389    0.0037717716  -41.314448     -136.22296     -81.900797      17.285187     -14.795955     -17.605264      0.0056241548  -0.010611492    0.0037646763   64.955918      62.60136       54.678233      1              222339.67      1.2375826     -1276019.1      12554.03       8621.499       887.72244          21924       36303       53175       13773 
    284000  -1299100.5      17848.224      298.44535     -1281252.3     -804.67024     -683.59327     -757.26038     -846.81163     -446.70779      0.0056639296   0.00568       -0.0090090953   0.0043023589   76.730184      85.803966      45.263437     -16.024206      16.115211      14.078334      0.0056639296  -0.0090499226   0.0042931302   64.958502      62.699192      54.707136      1              222813.72      1.2349496     -1276029.3      12512.653      8522.124       890.42069          21924       36303       53175       13773 
[...]
   4938000  -1298941.2      17782.259      297.34234     -1281158.9     -662.49246      380.0938      -575.70896      457.62693      1258.3634      0.094182271    0.09876       -0.047216606   -0.03583213     58.331323     -46.371433     -127.50606      102.89945      3.7188605      5.6759678      0.094182271   -0.048367689   -0.03648986     70.97069       60.281834      52.520899      1              224697.19      1.2245979     -1276083.7      12471.153      8661.5719      893.64021          21924       36303       53175       13773 
   4940000  -1298844.8      17699.062      295.95118     -1281145.7     -730.32017     -452.21724     -1243.4771      62.101158     -175.27581      0.094218675    0.0988        -0.047542626   -0.034069163    125.99815     -6.2896256      17.76264       113.72515     -6.5781047      13.584699      0.094218675   -0.048709924   -0.034663045    70.973274      60.261207      52.616932      1              225039.21      1.2227367     -1276086.1      12634.454      8624.9801      904.15106          21924       36303       53175       13773 
   4942000  -1298634.7      17727.23       296.42218     -1280907.4     -746.44225     -1077.8641     -1672.733      -1109.3955     -451.46385      0.094255078    0.09884       -0.047081535   -0.033018967    169.48979      112.40961      45.744684      131.91466     -1.9310438      11.556732      0.094255078   -0.048225935   -0.033576398    70.975857      60.29038       52.674139      1              225401.15      1.2207733     -1275861.6      12716.446      8552.3871      882.0381           21924       36303       53175       13773 
   4944000  -1298887.1      17807.793      297.7693      -1281079.3     -719.79707     -469.54875     -1731.793       342.77858     -19.631792      0.094291479    0.09888       -0.045863314   -0.033901108    175.47278     -34.733199      1.9880595      114.08961      2.3261235      25.250388      0.094291479   -0.046948341   -0.034489077    70.978441      60.367456      52.626087      1              225491.62      1.2202835     -1276052.5      12656.248      8530.2322      872.21891          21924       36303       53175       13773 
   4946000  -1298920.6      17933.671      299.87415     -1280986.9     -730.83235     -754.85507     -1247.0348     -409.35397     -608.17641      0.094327879    0.09892       -0.043471841   -0.035789834    126.35813      41.480136      61.625773      124.2733       4.3071919      4.3818111      0.094327879   -0.044445051   -0.036445994    70.981025      60.518762      52.523203      1              225623.07      1.2195726     -1276014.4      12558.916      8536.9762      894.9399           21924       36303       53175       13773 
   4948000  -1298718.3      17933.816      299.87656     -1280784.5     -679.19936     -323.07192     -1255.7559      562.88873     -276.34859      0.094364278    0.09896       -0.040967688   -0.038758403    127.23868     -57.035488      28.000228      95.693233     -10.113711     -11.687145      0.094364278   -0.041830511   -0.0395295      70.983608      60.677198      52.361496      1              225525.49      1.2201002     -1276071.4      12629.231      8661.5212      902.75146          21924       36303       53175       13773 
   4950000  -1298909.2      17804.482      297.71394     -1281104.8     -719.81729     -454.76148     -473.85848     -927.34089      36.914912      0.094400675    0.099         -0.038307195   -0.040753609    48.013804      93.96291      -3.7403091      128.1463       16.360271     -7.268447       0.094400675   -0.039060209   -0.041607313    70.986192      60.845525      52.252812      1              225689.94      1.2192112     -1276128.3      12634.214      8615.7853      881.76547          21924       36303       53175       13773 
   4952000  -1298691.7      17730.216      296.47211     -1280961.5     -693.86444     -788.22922     -1690.9949     -706.81265      33.119907      0.094437071    0.09904       -0.037425444   -0.041888531    171.34062      71.618353     -3.3553233      121.44579      2.5700405      5.2196642      0.094437071   -0.038143755   -0.042791152    70.988776      60.901313      52.19099       1              225637.81      1.2194929     -1276004.8      12705.85       8615.7568      887.30878          21924       36303       53175       13773 
   4954000  -1298724        17846.057      298.40912     -1280878       -678.04838      66.395945      37.184051      171.26172     -9.2579407      0.094473466    0.09908       -0.038458929   -0.04292378    -3.7674085     -17.352831      0.93832915     125.32923      16.701863     -4.4338338      0.094473466   -0.039217999   -0.043872246    70.991359      60.835925      52.134597      1              225160.2       1.2220797     -1276061.3      12661.221      8667.6248      885.50949          21924       36303       53175       13773 
   4956000  -1298829        17757.451      296.92752     -1281071.6     -792.3248      -231.41784     -875.61183      597.73578     -416.37747      0.09450986     0.09912       -0.039955972   -0.044119559    88.71975      -60.567199      42.187837      105.04405      12.45282       1.1103913      0.09450986    -0.040776133   -0.045122435    70.993943      60.741209      52.069459      1              224536.94      1.2254719     -1276006.3      12620.552      8632.0325      916.29483          21924       36303       53175       13773 
   4958000  -1298966.4      17811.505      297.83137     -1281154.9     -797.16061     -274.51803     -1527.8153     -157.9506       862.21178      0.094546252    0.09916       -0.042219423   -0.04410731     154.80776      16.006257     -87.361717      100.31921     -4.8306859     -31.810854      0.094546252   -0.04313657    -0.045109621    70.996527      60.598002      52.070127      1              224018.58      1.2283075     -1276161.7      12651.684      8647.4028      887.3905           21924       36303       53175       13773 
   4960000  -1298857.1      18032.332      301.52388     -1280824.8     -740.16061     -244.3925      -760.17406      331.48441     -304.48785      0.094582642    0.0992        -0.044181761   -0.041764142    77.024321     -33.587979      30.851913      110.70842      2.1920709     -1.1548741      0.094582642   -0.045187511   -0.042661333    70.99911       60.473846      52.197765      1              224115.77      1.2277749     -1275987.7      12589.57       8612.9897      894.72348          21924       36303       53175       13773 
   4962000  -1298865        17835          298.22424     -1281030       -688.01487     -102.66116      205.18147     -929.70801      416.54305      0.094619032    0.09924       -0.044609077   -0.039498754   -20.79082       94.20185      -42.207042      92.191891     -18.31782      -4.926732       0.094619032   -0.045634679   -0.040299999    71.001694      60.44681       52.321167      1              224553.34      1.2253823     -1276078.1      12622.793      8590.3512      898.84019          21924       36303       53175       13773 
   4964000  -1298793.9      17778.061      297.27214     -1281015.8     -778.48025      52.010554     -840.89024      581.86667      415.05523      0.09465542     0.09928       -0.044856379   -0.038385576    85.204427     -58.956418     -42.054269      87.249771     -0.62836069     11.535187      0.09465542    -0.045893561   -0.039141715    71.004278      60.431164      52.381805      1              224763.58      1.2242362     -1275968.3      12654.137      8632.0364      874.94979          21924       36303       53175       13773 
   4966000  -1298763.7      17967.824      300.44523     -1280795.9     -712.73709     -342.4176       279.28783     -427.51124     -879.02939      0.094691807    0.09932       -0.045357957   -0.038751462   -28.297788      43.318623      89.068697      79.840183      4.1718602     -0.30617995     0.094691807   -0.046418833   -0.039522279    71.006861      60.399429      52.361875      1              224568.24      1.2253011     -1276001.2      12766.027      8541.5433      887.31721          21924       36303       53175       13773 
   4968000  -1298904.9      17855.94       298.57438     -1281049       -821.87399     -686.37559     -1499.5542     -255.97738     -303.59517      0.094728192    0.09936       -0.045364494   -0.038844932    151.94023      25.934825      30.759679      141.25632     -2.6209008     -7.1436607      0.094728192   -0.046425681   -0.039619522    71.009445      60.399016      52.356783      1              224553.04      1.225384      -1275967.1      12619.852      8582.8925      891.74025          21924       36303       53175       13773 
   4970000  -1298840.8      17730.313      296.47374     -1281110.5     -906.53353     -445.65214     -1896.6711      459.30367      100.41095      0.094764576    0.0994        -0.045979876   -0.037453993    192.18165     -46.537464     -10.172697      122.8205       1.2984299     -9.9217825      0.094764576   -0.047070513   -0.038173414    71.012029      60.360081      52.432551      1              224741.22      1.224358      -1276058.3      12625.844      8790.2031      899.26397          21924       36303       53175       13773 
   4972000  -1298622.6      17804.994      297.7225      -1280817.6     -725.73287     -1094.0521     -1731.7337     -570.47123     -979.95125      0.094800959    0.09944       -0.047003917   -0.036630291    175.46772      57.802801      99.293367      107.1048       17.100248      14.871899      0.094800959   -0.048144486   -0.037318027    71.014612      60.295291      52.477421      1              224700.27      1.2245811     -1275910.2      12623.698      8701.6104      906.48755          21924       36303       53175       13773 
   4974000  -1298722.5      17785.109      297.39        -1280937.4     -869.92207     -350.05042     -1648.2764      525.62944      72.495707      0.094837341    0.09948       -0.048864298   -0.035116654    167.01079     -53.26024      -7.3464496      114.0927      -0.3471253     -0.85782179     0.094837341   -0.050098533   -0.03574807     71.017196      60.177586      52.559873      1              224622.15      1.225007      -1275929.5      12702.294      8665.4605      893.87115          21924       36303       53175       13773 
   4976000  -1298791.7      17687.148      295.75196     -1281104.5     -755.14899     -715.96723     -1624.7686      5.9095618     -529.04263      0.094873721    0.09952       -0.050600295   -0.034386157    164.62919     -0.59927608     53.604754      117.53838     -3.5898785      9.1106029      0.094873721   -0.051925384   -0.034991273    71.01978       60.067751      52.599665      1              224390.09      1.2262739     -1276013.3      12733.039      8548.739       882.45083          21924       36303       53175       13773 
   4978000  -1298688        17640.016      294.96385     -1281048       -770.55749     -704.18393     -1528.2312     -257.68733     -326.63328      0.0949101      0.09956       -0.051068015   -0.034704436    154.84931      26.11143       33.097387      129.67365     -16.615817      1.784494       0.0949101     -0.052418153   -0.03532094     71.022363      60.038159      52.582327      1              224213.77      1.2272382     -1275992.2      12780.277      8617.1252      872.38745          21924       36303       53175       13773 
   4980000  -1298669.1      17860.84       298.65632     -1280808.2     -787.26242      83.181294     -692.33316      1346.5709     -404.69385      0.094946477    0.0996        -0.050636762   -0.036758958    70.150382     -136.44158      41.00533       95.073815     -21.339415      7.5694866      0.094946477   -0.051963795   -0.037451595    71.024947      60.065444      52.470412      1              223846.38      1.2292524     -1275956.7      12782.314      8557.7566      896.76889          21924       36303       53175       13773 
   4982000  -1298981.7      17825.145      298.05946     -1281156.5     -689.93609     -235.81977     -532.65665     -841.86103      667.05836      0.094982854    0.09964       -0.047743112   -0.038484947    53.970699      85.300827     -67.590429      87.275273     -2.7486707     -3.458693       0.094982854   -0.04892044    -0.039245058    71.027531      60.248523      52.376392      1              224134.49      1.2276723     -1276181.6      12662.127      8521.033       874.5592           21924       36303       53175       13773 
   4984000  -1298772.2      17716.86       296.24879     -1281055.4     -770.7337      -173.40901     -716.68101      361.58808     -165.13409      0.095019228    0.09968       -0.045348378   -0.039867711    72.618979     -36.636637      16.733486      108.90566      2.7630462      5.9383098      0.095019228   -0.046408799   -0.040684203    71.030114      60.400035      52.301069      1              224383.17      1.2263117     -1276141.2      12741.815      8679.8221      890.58824          21924       36303       53175       13773 
   4986000  -1298793        17870.229      298.81332     -1280922.8     -908.16827     -219.48637     -1028.0768     -180.73945      550.35711      0.095055602    0.09972       -0.044714525   -0.041331739    104.16982      18.313372     -55.764988      131.16337      2.1406997      5.6963392      0.095055602   -0.045745056   -0.042210186    71.032698      60.440139      52.22132       1              224197.93      1.2273249     -1275990.5      12750.245      8655.6779      883.98541          21924       36303       53175       13773 
   4988000  -1298877.3      17895.519      299.23619     -1280981.8     -726.53757     -29.685326     -1095.7322     -73.191665      1079.8679      0.095091974    0.09976       -0.044608543   -0.041344348    111.02458      7.4156563     -109.4181       92.781918     -4.3473725     -17.682881      0.095091974   -0.04563412    -0.042223339    71.035282      60.446844      52.220633      1              224228.01      1.2271602     -1276087.5      12709.311      8558.4739      895.95598          21924       36303       53175       13773 
   4990000  -1298844.1      17759.104      296.95515     -1281085       -815.13072     -1497.5998     -1862.6378     -1774.4324     -855.72924      0.095128345    0.0998        -0.043961037   -0.040759268    188.73103      179.79363      86.706029      117.41377      17.24839       8.6793113      0.095128345   -0.04495661    -0.041613212    71.037865      60.487811      52.252504      1              224525.09      1.2255365     -1276050.8      12751.559      8583.8425      890.699            21924       36303       53175       13773 
   4992000  -1298752.9      17858.592      298.61873     -1280894.3     -740.49153      269.34825     -870.85748      1440.3346      238.5676       0.095164715    0.09984       -0.043276678   -0.040740737    88.243092     -145.93852     -24.169516      124.68702     -12.759285      2.7052444      0.095164715   -0.044241039   -0.041593893    71.040449      60.53111       52.253513      1              224698.32      1.2245917     -1276063.4      12640.399      8680.7476      913.5659           21924       36303       53175       13773 
   4994000  -1298711.1      17837.647      298.2685      -1280873.4     -731.13976     -416.42029     -1304.5405     -175.37388      230.65353      0.095201083    0.09988       -0.04272391    -0.040613337    132.18002      17.767272     -23.373443      82.011894     -2.4223121     -8.3712567      0.095201083   -0.043663434   -0.041461092    71.043033      60.566083      52.260453      1              224866.19      1.2236776     -1275979.3      12682.178      8625.1754      886.85317          21924       36303       53175       13773 
   4996000  -1298813.2      17764.651      297.04792     -1281048.6     -635.66916      232.60414     -289.81521      229.34568      758.28195      0.09523745     0.09992       -0.042108988   -0.040417697    29.366106     -23.237873     -76.832348      88.143922     -5.4189097      1.6752457      0.09523745    -0.043021274   -0.04125719     71.045616      60.604989      52.27111       1              225064.7       1.2225982     -1276111        12659.827      8576.6813      896.72742          21924       36303       53175       13773 
   4998000  -1298692.1      17743.349      296.69172     -1280948.7     -717.69878     -284.28741     -1262.3405      287.9922       121.48606      0.095273816    0.09996       -0.042456131   -0.040931897    127.90704     -29.180417     -12.309191      120.6724       19.019352      0.99049103     0.095273816   -0.043383743   -0.041793192    71.0482        60.583026      52.2431        1              224870.76      1.2236527     -1276079.3      12794.56       8645.5588      885.62655          21924       36303       53175       13773 
   5000000  -1298928        17901.622      299.33824     -1281026.4     -792.07938      482.58205     -1077.1914      1812.2261      712.71142      0.09531018     0.1           -0.043465941   -0.041463386    109.14542     -183.62481     -72.216483      106.68522     -3.7964477      0.64643942     0.09531018    -0.044438883   -0.042347518    71.050784      60.519136      52.214149      1              224517.29      1.2255791     -1276135.7      12686.545      8587.5401      915.18499          21924       36303       53175       13773 
Loop time of 108975 on 16 procs for 5000000 steps with 20064 atoms

Performance: 0.396 ns/day, 60.542 hours/ns, 45.882 timesteps/s, 920.578 katom-step/s
99.0% CPU use with 16 MPI tasks x no OpenMP threads

MPI task timing breakdown:
Section |  min time  |  avg time  |  max time  |%varavg| %total
---------------------------------------------------------------
Pair    | 64031      | 70700      | 75806      | 842.4 | 64.88
Bond    | 23069      | 23861      | 24734      | 299.5 | 21.90
Kspace  | 4978.5     | 10818      | 18260      |2424.0 |  9.93
Neigh   | 418        | 418.15     | 418.22     |   0.3 |  0.38
Comm    | 1479.8     | 1512.6     | 1542.5     |  56.4 |  1.39
Output  | 2.9947     | 2.998      | 3.0434     |   0.7 |  0.00
Modify  | 1361.8     | 1459.3     | 1501.1     | 133.0 |  1.34
Other   |            | 203.4      |            |       |  0.19

Nlocal:           1254 ave        1278 max        1223 min
Histogram: 1 0 3 2 0 2 2 0 4 2
Nghost:        11643.2 ave       11697 max       11572 min
Histogram: 2 1 0 1 0 2 5 2 1 2
Neighs:         643799 ave      670110 max      605186 min
Histogram: 1 1 0 1 1 2 5 1 3 1

Total # of neighbors = 10300790
Ave neighs/atom = 513.39663
Ave special neighs/atom = 5.8041268
Neighbor list builds = 18498
Dangerous builds = 0

#-------------------Wrap up-------------------
write_restart   ${myid}.restart
write_restart   tensile_L10_rep_1_1_full_xld_erate_2e8_IFF-RX0.restart
System init for write_restart ...
PPPM initialization ...
  using 12-bit tables for long-range coulomb (../kspace.cpp:342)
  G vector (1/distance) = 0.18122374
  grid = 18 15 15
  stencil order = 5
  estimated absolute RMS force accuracy = 0.02807917
  estimated relative force accuracy = 8.4559586e-05
  using double precision KISS FFT
  3d grid and FFT values/proc = 1690 320
Generated 45 of 45 mixed pair_coeff terms from sixthpower/sixthpower mixing rule
write_data      ${myid}.data
write_data      tensile_L10_rep_1_1_full_xld_erate_2e8_IFF-RX0.data
System init for write_data ...
PPPM initialization ...
  using 12-bit tables for long-range coulomb (../kspace.cpp:342)
  G vector (1/distance) = 0.18122374
  grid = 18 15 15
  stencil order = 5
  estimated absolute RMS force accuracy = 0.02807917
  estimated relative force accuracy = 8.4559586e-05
  using double precision KISS FFT
  3d grid and FFT values/proc = 1690 320
Generated 45 of 45 mixed pair_coeff terms from sixthpower/sixthpower mixing rule
Total wall time: 30:16:15
