thermo_style   custom step temp press density etotal ke pe epair ebond eangle edihed eimp elong lx ly lz vol density v_eengxy v_eengxz                v_eengyz v_etruexy v_etruexz v_etrueyz v_sxx v_syy v_szz v_sxy v_sxz v_syz f_sxx_ave f_syy_ave f_szz_ave f_sxy_ave f_sxz_ave                f_syz_ave v_dir
dump           6 all atom 10000 dump.${myid} #every dump_freq
dump           6 all atom 10000 dump.shear_L10_rep_2_1_full_xld_erate_2e8_IFF-RX0_mmorse 
dump_modify    6 scale no sort id

#-------------------Run-------------------
timestep       ${mytimestep}
timestep       0.1
run            ${steps}
run            6000000
PPPM initialization ...
  using 12-bit tables for long-range coulomb (../kspace.cpp:342)
  G vector (1/distance) = 0.1835996
  grid = 18 20 12
  stencil order = 5
  estimated absolute RMS force accuracy = 0.024994408
  estimated relative force accuracy = 7.5269916e-05
  using double precision KISS FFT
  3d grid and FFT values/proc = 1540 270
Generated 45 of 45 mixed pair_coeff terms from sixthpower/sixthpower mixing rule
Neighbor list info ...
  update: every = 1 steps, delay = 0 steps, check = yes
  max neighbors/atom: 5000, page size: 100000
  master list distance cutoff = 14
  ghost atom cutoff = 14
  binsize = 7, bins = 10 11 7
  1 neighbor lists, perpetual/occasional/extra = 1 0 0
  (1) pair lj/class2/coul/long, perpetual
      attributes: half, newton on
      pair build: half/bin/newton/tri
      stencil: half/bin/3d/tri
      bin: standard
WARNING: Inconsistent image flags (../domain.cpp:815)
Per MPI rank memory allocation (min/avg/max) = 21.5 | 21.56 | 21.9 Mbytes
   Step          Temp          Press         Density         TotEng         KinEng         PotEng         E_pair         E_bond        E_angle        E_dihed        E_impro         E_long           Lx             Ly             Lz           Volume        Density        v_eengxy       v_eengxz       v_eengyz      v_etruexy      v_etruexz      v_etrueyz        v_sxx          v_syy          v_szz          v_sxy          v_sxz          v_syz        f_sxx_ave      f_syy_ave      f_szz_ave      f_sxy_ave      f_sxz_ave      f_syz_ave        v_dir     
         0   301.40819      1027.7721      1.2369137     -1282102.3      18025.413     -1300127.7     -45752.337     -1276513.1      12462.22       8762.5521      912.95873     -27136.032      69.285919      73.289621      43.809095      222459.9       1.2369137      0              0              0              0              0              0             -26.662772     -161.79876     -123.95548      8.6927553      11.859787     -72.211939      0              0              0              0              0              0              1            
      2000   298.97126     -32.71132       1.2311481     -1282425.6      17879.675     -1300305.3     -45784.239     -1276508.9      12504.805      8618.7683      864.2636      -27134.007      69.363001      73.43319       43.879388      223501.7       1.2311481      3.9921796e-05 -0.00020434877  0.00092118961  3.9920999e-05 -0.00020436965  0.00092076558 -3.9051654      24.266577     -10.417988      31.545829     -8.730966      -6.5857312      48.968155      23.592108     -2.5358462     -8.6481107     -1.6032248     -10.123501      1            
      4000   298.22596     -571.33674      1.2268324     -1282346.3      17835.103     -1300181.4     -45730.163     -1276471.3      12484.54       8640.1038      895.48337     -27134.841      69.363331      73.570275      43.951489      224287.94      1.2268324      7.9694818e-05 -0.00075745732  0.0015895977   7.9691642e-05 -0.00075774433  0.0015883356   37.858535     -44.976171      180.78972      1.0315627      65.398362     -33.380371      55.301003      50.659281      51.060959     -2.2151631     -11.724601      25.521062      1            
      6000   299.34984     -488.80713      1.2312239     -1282062.9      17902.316     -1299965.2     -45780.307     -1276388.7      12577.99       8714.7887      911.02044     -27133.543      69.215719      73.487035      43.937834      223487.95      1.2312239      0.00011967763 -0.0009858131   0.0029279633   0.00011967047 -0.00098629933  0.0029236851   37.737881      33.443328      77.403937      3.3944542     -71.61675       44.062066     -10.61642       27.927525      24.032254     -0.574685       7.6230599      3.9170323      1            
      8000   297.22226     -127.28973      1.2352564     -1282366.8      17775.077     -1300141.9     -45799.855     -1276468.4      12540.6        8690.8931      894.91442     -27135.175      69.150692      73.335946      43.925892      222758.37      1.2352564      0.00015989893 -0.0018468088   0.0041353637   0.00015988615 -0.0018485163   0.0041268366   27.094376      15.123935     -3.5254159     -36.222176     -2.9777921      50.135701     -35.911881      9.5753996     -13.558313      1.8053965     -6.8866823      3.8657302      1            
     10000   296.47769      196.96469      1.2357502     -1282462.5      17730.549     -1300193       -45854.071     -1276423.9      12531.616      8664.5384      888.77678     -27134.39       69.252862      73.212198      43.917669      222669.36      1.2357502      0.0002002115  -0.002303891    0.0052748881   0.00020019146 -0.002306549    0.0052610246  -29.395886      55.682967     -86.159423     -31.037512     -34.028372     -58.465082      20.822381      18.51932       34.232378     -16.432534      10.792607     -4.9230909      1            
     12000   296.31397     -99.163017      1.235794      -1282541.9      17720.759     -1300262.7     -45795.494     -1276455.6      12476          8662.6572      849.75224     -27135.292      69.384105      73.08169       43.911322      222661.47      1.235794       0.00024068284 -0.002061878    0.0065877783   0.00024065388 -0.0020640066   0.0065661737   61.461204      4.7705304     -36.088656      67.663902      72.8727        8.9478727      11.33361      -54.071463     -43.538968     -8.1929079      4.7156862     -15.248793      1            
     14000   300.43812      218.14497      1.2326197     -1282369.7      17967.399     -1300337.1     -45896.219     -1276551.1      12642.569      8592.1253      875.52559     -27134.793      69.574116      72.999166      43.953802      223234.87      1.2326197      0.00028111408 -0.0030666207   0.0078514458   0.00028107457 -0.0030713325   0.0078207836  -9.3433139     -24.011001     -32.956302     -8.7278749      9.3998886      34.908325      0.47895083    -21.236672     -18.01438      -7.9069483      5.1049161      6.5268867      1            
     16000   298.49113      503.94694      1.233351      -1282335.6      17850.961     -1300186.6     -45761.808     -1276521.3      12626.259      8583.8025      886.48077     -27134.935      69.633958      72.855558      43.976504      223102.52      1.233351       0.0003219065  -0.0039246224   0.0085162307   0.0003218547  -0.0039323439   0.0084801722  -20.102984     -74.561616     -58.522671      18.694567     -25.308485      60.492914     -12.527219     -11.622027      0.82034258    -2.0540822      2.0226172     -11.582047      1            
     18000   296.69967     -596.91598      1.2342475     -1282638.6      17743.825     -1300382.4     -45853.44      -1276566.5      12444.922      8703.1123      889.472       -27135.814      69.647892      72.722514      44.01615       222940.47      1.2342475      0.00036280735 -0.0038912742   0.0085190966   0.00036274155 -0.0038988649   0.0084830139   58.504823      10.614824      112.32789     -11.289743     -105.77133      25.751631      11.960286     -16.188912     -26.991784      28.706874     -0.33974863     5.4239202      1            
     20000   298.89593     -1121.913       1.2344972     -1282399        17875.17      -1300274.1     -45947.765     -1276574.6      12651.683      8720.1245      876.40665     -27134.652      69.589527      72.670285      44.07581       222895.37      1.2344972      0.000403409   -0.0032375056   0.0083170459   0.00040332765 -0.0032427576   0.0082826499   131.08988      30.917748      179.02588     -16.474837      33.009603     -90.956857      17.249933      5.2242036     -0.46827136     9.7099744     -8.5265822     -28.176628      1            
     22000   300.47598     -9.0896172      1.2362429     -1282276.6      17969.663     -1300246.3     -45807.427     -1276596.2      12530.45       8740.2404      886.64201     -27136.047      69.519834      72.67759       44.053264      222580.61      1.2362429      0.00044370529 -0.0017871762   0.0091230326   0.00044360688 -0.0017887751   0.0090816691   19.516949     -32.844143      16.09021      -37.748466      49.539673      11.115164     -46.980556     -38.136354      7.0771473     -24.076055      13.495389     -2.2368244      1            
     24000   296.16582      276.12918      1.2323475     -1282234.3      17711.898     -1299946.2     -45714.898     -1276400.3      12560.333      8709.0563      899.60504     -27134.966      69.583462      72.866654      44.037547      223284.19      1.2323475      0.00048278621 -0.00058540539  0.0093630633   0.0004826697  -0.0005855768   0.0093195015  -11.715223     -3.3000106     -68.921133     -52.314169      25.843766     -42.584133     -9.153845      -5.3627959      21.77408      -13.098639      19.69154       16.166757      1            
     26000   296.76981      245.44765      1.2295541     -1282544.1      17748.02      -1300292.1     -45750.483     -1276597.5      12620.344      8558.3408      877.13121     -27135.767      69.627748      73.068304      43.98779       223791.47      1.2295541      0.00052157498  0.00040685055  0.0091287473   0.00052143901  0.00040676781  0.0090873322  -107.96951      34.059976     -0.70041899    -0.50490832    -7.9737031      70.41759       4.5782724      7.1768608      16.111804     -14.753418     -6.1191735     -6.1189455      1            
     28000   299.12253     -686.22135      1.2335239     -1282271.9      17888.721     -1300160.6     -45867.825     -1276494.3      12583.043      8727.6321      890.83742     -27133.236      69.538454      73.15061       43.853129      223071.23      1.2335239      0.00056106413  0.0018655572   0.009525425    0.0005609068   0.0018638192   0.0094803442   38.544777      89.936302      80.113055      38.517895      87.204882     -15.234144      26.189768      3.7794565     -6.281794      -23.668717     -2.361399       9.805279       1            
     30000   299.64817     -244.18058      1.2394558     -1282298.6      17920.157     -1300218.8     -45885.573     -1276506.2      12522.46       8772.2031      878.40006     -27135.283      69.403164      73.132448      43.739189      222003.65      1.2394558      0.00060128942  0.0028403599   0.010076338    0.00060110872  0.0028363337   0.01002591     48.140452     -69.982056      96.066396     -42.15326       15.898393      21.316381      7.4285008     -21.011571     -23.355859      7.5520818      0.526314       20.711957      1            
     32000   297.54812      343.61476      1.2366797     -1282522.3      17794.565     -1300316.9     -45784.605     -1276609.9      12533.919      8667.1565      876.49736     -27135.606      69.359071      73.303731      43.762747      222502         1.2366797      0.00063987672  0.0033780992   0.0099292539   0.00063967208  0.0033724063   0.0098802828  -65.962987     -7.298875      -31.188436      35.729186     -47.044071     -24.45451      -35.525754      3.9504678     -11.149957     -8.4998117      11.972719     -2.1339742      1            
     34000   297.07941     -241.52309      1.2304214     -1282431.8      17766.535     -1300198.3     -45823.572     -1276489.5      12515.649      8699.6885      899.39962     -27134.484      69.425086      73.502945      43.824412      223633.71      1.2304214      0.00067802636  0.0040049569   0.010129223    0.00067779661  0.0039969584   0.010078266   -35.510999      105.11089      3.8170863     -9.4085227      16.975671     -9.0274569      25.282797      45.71322       1.2665207     -5.152982       5.589026       2.6544321      1            
     36000   299.05342     -82.089609      1.2317226     -1282174        17884.588     -1300058.6     -45810.443     -1276519.3      12642.437      8733.953       894.71976     -27134.481      69.411952      73.449578      43.818213      223397.46      1.2317226      0.00071843188  0.0049212659   0.009478844    0.00071817393  0.0049091961   0.0094342016   62.888012     -29.864573     -8.0702503      9.2379587      19.319365     -22.120976     -16.174418      31.366497      0.9850697     -16.67182      -18.985641     -6.8990616      1            
     38000   297.65589     -1299.0702      1.2315121     -1282456.8      17801.011     -1300257.8     -45795.662     -1276522.3      12452.171      8720.8575      887.14501     -27135.623      69.485862      73.349202      43.838998      223435.65      1.2315121      0.00075938252  0.0059602156   0.007449287    0.00075909433  0.0059425238   0.0074216781   137.39524      123.96705      133.52257     -112.28412     -27.406796      74.705944      34.834555      13.467963      14.475281     -6.1134602      7.7957289      24.29694       1            
     40000   298.21417     -273.83846      1.2332564     -1282437        17834.398     -1300271.4     -45797.815     -1276602.5      12562.559      8685.6324      880.72205     -27134.113      69.505885      73.292482      43.79825       223119.62      1.2332564      0.0007999686   0.0061972473   0.0038616279   0.0007996488   0.0061781234   0.003854191    5.4553224      28.382691      49.402032     -16.419174      1.4623153     -21.225593      30.176743      31.188669      41.662596     -2.5355045      5.0599596      2.1400259      1            
     42000   298.75028     -78.509556      1.2371618     -1282403.6      17866.46      -1300270.1     -45828.25      -1276548.2      12598.825      8632.6433      874.94714     -27135.171      69.409223      73.327065      43.700174      222415.29      1.2371618      0.00083957087  0.005825149    0.000878081    0.00083921862  0.0058082484   0.00087769571 -46.555873      36.401885      34.018931      51.004743     -24.790633     -30.339104     -17.934617      20.254974      8.0536954     -4.0279992      5.7407046     -19.734636      1            
     44000   295.44763      199.5351       1.2363328     -1282556.2      17668.948     -1300225.1     -45812.444     -1276566.7      12593.613      8669.8076      890.66063     -27135.708      69.417508      73.390089      43.68671       222564.43      1.2363328      0.00087879509  0.0051223151  -0.00065175446  0.00087840918  0.0051092406  -0.00065196694  31.716225     -39.713284     -52.656621      47.881987      57.439729      7.1489875     -19.550912      6.226093      -27.775628     -12.410264      10.471726     -8.5285831      1            
     46000   296.16709     -471.63508      1.2318983     -1282569.9      17711.974     -1300281.9     -45826.176     -1276605.9      12655.585      8629.0213      865.57437     -27134.802      69.495875      73.492773      43.73334       223365.61      1.2318983      0.00091745664  0.0041512156  -0.00054030082  0.00091703603  0.004142623   -0.00054044684  54.25097       23.493913      65.62039       34.040018      8.0136456     -41.775216      12.450566      57.892849      23.112619      7.8985587      13.085849      2.8367979      1            
     48000   299.54181      397.01203      1.2332182     -1282273.7      17913.796     -1300187.5     -45782.831     -1276487.4      12564.641      8657.7786      860.33928     -27135.552      69.521299      73.447183      43.697661      223126.53      1.2332182      0.00095794028  0.0027613916  -0.00025674978  0.00095748175  0.002757586   -0.00025678275 -13.485013     -87.005438     -20.19128       26.325266     -67.829303     -22.751622      20.431859      17.615144      26.434363      34.763593     -15.517762     -4.0410238      1            
     50000   297.67206      343.86644      1.234667      -1282539.4      17801.978     -1300341.4     -45810.233     -1276599.9      12567.993      8621.174       879.63606     -27134.596      69.627006      73.396284      43.610344      222864.71      1.234667       0.00099854642  0.0023690125  -0.00015493165  0.00099804821  0.0023662108  -0.00015494365  94.00042      -92.111853     -106.41537     -2.7422284     -7.3950496      9.6283029      20.159426      2.6917529     -13.441845      12.866626     -17.326977      4.3882082      1            
     52000   298.90998      450.01128      1.2355265     -1282571.1      17876.01      -1300447.1     -45778.216     -1276688.9      12612.402      8553.7435      853.9105      -27134.746      69.726977      73.279644      43.586791      222709.67      1.2355265      0.0010401412   0.0034704778   2.4744495e-05  0.0010396007   0.0034644696   2.4744188e-05 -95.516279     -32.343542     -8.9323572     -69.771989      2.7511009     -36.335529      19.619448     -4.9463919     -43.723731      2.9144817      11.783389     -8.8972656      1            
     54000   301.91213      294.40703      1.2336571     -1282411.1      18055.55      -1300466.6     -45816.513     -1276699        12625.148      8576.0095      847.71251     -27134.42       69.83631       73.156205      43.658039      223047.15      1.2336571      0.0010819692   0.0040857802   0.0019193038   0.0010813843   0.004077456    0.0019174643  -64.32619      -25.053015     -0.1131734     -92.005219      48.590116      7.3304469      49.706123      22.690348      26.11553      -12.083787      20.714193     -13.007996      1            
     56000   297.58649      197.20384      1.2341104     -1282320.2      17796.86      -1300117.1     -45848.726     -1276566.4      12621.981      8760.2582      915.79025     -27134.27       69.863124      72.993469      43.722516      222965.23      1.2341104      0.0011245436   0.003507349    0.0053513957   0.0011239118   0.0035012126   0.0053371279   19.166914     -111.64767      32.535718      56.331109     -5.6971327      19.410079      36.021143      34.290234      33.487315     -9.5726597     -0.56450371     1.8501935      1            
     58000   298.47049      593.03274      1.2369841     -1282529.4      17849.727     -1300379.2     -45849.142     -1276630.9      12576.549      8640.1534      884.16087     -27135.728      69.785872      72.817082      43.775011      222447.25      1.2369841      0.0011675272   0.0022396874   0.0083036859   0.0011668461   0.002237183    0.0082694     -44.704597     -78.936766     -56.625763     -22.497339     -78.692265      26.657113     -14.063303     -14.592322      25.748854     -6.8006966      11.83081       16.61017       1            
     60000   298.06078      646.06966      1.2377082     -1282527.7      17825.224     -1300352.9     -45869.832     -1276656.7      12603.353      8653.9943      916.24082     -27134.775      69.709651      72.801567      43.806569      222317.11      1.2377082      0.0012080441   0.0002828754   0.010381256    0.001207315    0.0002828354   0.010327741   -101.69744     -42.519799     -52.171786     -33.313109     -37.893636     -84.641003     -5.4793184     -13.391249      28.202953     -24.390692      13.076115     -11.916339      1            
     62000   297.06944      1174.826       1.2389973     -1282354.3      17765.939     -1300120.2     -45868.363     -1276596.2      12712.2        8724.1437      907.96372     -27134.731      69.646099      72.846073      43.774164      222085.81      1.2389973      0.0012475495  -0.00026219367  0.012314502    0.001246772   -0.00026222804  0.012239295   -104.63675     -227.0744      -25.406583      44.276727     -19.623164     -45.005853     -7.8077287      12.201238      22.411625      7.3908912     -11.971909      7.7086873      1            
     64000   296.08568      1003.5511      1.2387841     -1282525.5      17707.106     -1300232.6     -45838.608     -1276559.1      12663.25       8641.7833      859.99355     -27134.548      69.612576      72.903691      43.76816       222124.01      1.2387841      0.0012867752  -0.00022380259  0.012400732    0.001285948   -0.00022382763  0.012324473   -155.07051     -98.685364     -51.298588     -45.902732      10.734486     -60.842179      5.9344381      6.3838799      24.35058      -5.6358992      7.6385362      10.58885       1            
     66000   293.93581      566.42734      1.2349786     -1282746        17578.535     -1300324.6     -45773.86      -1276601.6      12522.934      8640.0478      887.87312     -27134.958      69.629287      73.067398      43.794152      222808.48      1.2349786      0.0013240138  -0.0012743085   0.011236536    0.0013231381  -0.0012751211   0.011173876   -66.192979     -51.538979     -54.447792      0.25849987     31.966726     -35.349593      6.2711474     -21.325692      13.023047     -26.14176      -13.30301       36.009855      1            
     68000   296.71477      230.31474      1.2323371     -1282376.4      17744.728     -1300121.1     -45849.314     -1276425.1      12554.858      8689.9905      908.48777     -27135.161      69.584992      73.255705      43.803073      223286.06      1.2323371      0.0013606288  -0.0016074019   0.0093700095   0.001359704   -0.0016086952   0.0093263832   48.701007     -65.427274     -53.283655     -62.151486      2.7497066      14.825284      3.5057792      31.3377        6.3580136     -1.1476552     -10.59215       6.2831128      1            
     70000   295.54075      37.119769      1.229781      -1282464.9      17674.516     -1300139.4     -45786.961     -1276519.2      12663.219      8628.2391      875.27329     -27134.623      69.610109      73.378574      43.804811      223750.18      1.229781       0.0013983019  -0.0018267152   0.0081791121   0.0013973252  -0.0018283857   0.0081458445  -93.030405      73.536956      8.2099677     -27.693116      3.8197461     -20.267639     -35.074528      4.1445548      12.013073     -26.271867      15.216337     -15.696256      1            
     72000   297.84966      107.40996      1.2311229     -1282535.1      17812.598     -1300347.7     -45787.415     -1276610.8      12631.455      8555.9979      863.07173     -27134.775      69.599331      73.385416      43.759757      223506.28      1.2311229      0.0014381193  -0.0021119147   0.0085194954   0.0014370862  -0.002114148    0.0084834093  -39.046314      6.8624327     -0.46606011    -0.76419705    -67.995853     -0.69551362     12.231668      22.942126      16.690198      0.8744175      1.6360577      4.4580297      1            
     74000   300.91359     -267.0828       1.2375809     -1282321.5      17995.834     -1300317.4     -45842.993     -1276478.6      12518.904      8631.5265      853.78093     -27134.294      69.539486      73.1795        43.691469      222339.98      1.2375809      0.001482226   -0.0021609868   0.0085705776   0.0014811286  -0.0021633251   0.0085340587   9.7109251      41.89592       29.579649     -23.481622      15.55257       34.603144     -59.961857     -22.816062     -20.01946       6.5727371     -2.8646055     -15.947066      1            
     76000   297.56549     -376.39404      1.2379544     -1282412.2      17795.604     -1300207.8     -45759.937     -1276543.2      12582.422      8621.6789      891.28789     -27135.283      69.544065      73.080799      43.734396      222272.89      1.2379544      0.0015243421  -0.0018343697   0.0087503155   0.0015231815  -0.0018360542   0.0087122534   34.679014      36.757585      42.977778     -5.43139        53.779605      25.38548      -28.601342     -66.26579      -8.9381796     -23.298917     -0.56618333    -15.075107      1            
     78000   295.86563     -1032.0342      1.2337862     -1282561.3      17693.946     -1300255.2     -45804.197     -1276555        12588.308      8634.2941      881.33314     -27134.772      69.57134       73.189728      43.79966       223023.82      1.2337862      0.0015621279  -0.0013700651   0.0089106927   0.0015609091  -0.0013710044   0.0088712268   162.34783      144.37491      6.9898648      3.0158932      37.594425     -33.201652      13.256701     -10.229842     -5.802546      -16.756072     -2.8613871      2.6180199      1            
     80000   300.42839     -129.81836      1.2313979     -1282301.7      17966.817     -1300268.5     -45770.825     -1276581.1      12597.222      8590.0864      896.07779     -27135.995      69.550862      73.350669      43.801213      223456.37      1.2313979      0.001598667   -0.0012966581   0.0087895193   0.0015973905  -0.0012974994   0.0087511164  -19.042316      26.767549      31.736302      11.553492      38.467582      53.827262      9.7359032      34.716548      5.399862      -9.4609824      9.531264      -3.0445209      1            
     82000   296.63906      246.70298      1.2288293     -1282523.8      17740.2       -1300264       -45761.663     -1276567.6      12553.031      8611.8219      900.38926     -27135.291      69.572329      73.502051      43.788856      223923.46      1.2288293      0.0016352587  -0.0013404831   0.0078508274   0.0016339232  -0.0013413823   0.00782017     58.793283      1.2291171     -135.01394     -16.106264      38.069981      19.456639     -5.7714849      17.17934       3.0594413     -11.669143     -8.0183799      6.1998141      1            
     84000   294.77844     -35.668188      1.2306105     -1282602.2      17628.927     -1300231.1     -45746.867     -1276483.6      12590.025      8520.655       888.68004     -27135.996      69.54894       73.494404      43.74473       223599.35      1.2306105      0.0016753173  -0.00081723767  0.0066668129   0.0016739155  -0.00081757179  0.006644688    8.8571056     -18.280634      20.265766      48.122241     -29.775241      42.544908     -6.8630351      4.3230537     -16.343196      9.2704014     -32.640225      20.564147      1            
     86000   299.77361     -35.079903      1.2362849     -1282308.3      17927.658     -1300235.9     -45761.242     -1276452.6      12626.409      8496.158       855.2857      -27135.798      69.465926      73.42536       43.636979      222573.06      1.2362849      0.0017168186   0.0017817076   0.0053526594   0.0017153466   0.0017801223   0.0053383849   30.391218     -3.0456145     -16.682191     -24.093112      60.662655     -26.04322       3.9518646     -35.902738     -3.8145479     -8.9178354     -10.873614     -6.7090081      1            
     88000   294.12419     -447.04793      1.2380508     -1282576.6      17589.8       -1300166.4     -45808.029     -1276454.9      12601.138      8602.0121      893.39493     -27135.874      69.393553      73.554566      43.543558      222255.58      1.2380508      0.0017536586   0.0038031714   0.0046665493   0.0017521228   0.0037959577   0.0046556947   57.590885      168.69864     -90.398127      0.24211835    -10.825162      1.3387612      23.848109      8.9176264     -29.466021     -13.600669     -5.6700417      7.9873494      1            
     90000   297.17814      267.52729      1.2371343     -1282526.2      17772.439     -1300298.6     -45779.309     -1276546.5      12660.152      8491.7589      875.26626     -27135.207      69.25754       73.730005      43.557502      222420.23      1.2371343      0.0017892468   0.0047271759   0.0041654943   0.001787648    0.0047160379   0.0041568427  -94.731907      18.750666     -5.3403674      27.968842      2.1930113      15.692858     -11.928524      17.412551      4.6014144     -19.175417      19.676741     -3.6167012      1            
     92000   296.74907      92.515672      1.2361865     -1282421.9      17746.779     -1300168.7     -45839.512     -1276421.1      12587.435      8622.0064      882.46811     -27135.212      69.168878      73.834354      43.585089      222590.77      1.2361865      0.0018264229   0.0045170946   0.0044923731   0.001824757    0.0045069231   0.0044823125  -119.55907      81.084514      10.352107      48.506633     -41.907651      20.145536     -27.630363      14.41221       2.5655855      22.552312      6.8297493     -29.323647      1            
     94000   298.29764     -60.849353      1.2359872     -1282424.5      17839.39      -1300263.9     -45821.197     -1276541        12564.598      8652.3585      881.34964     -27134.36       69.099229      73.817925      43.645767      222626.66      1.2359872      0.001866543    0.0047268935   0.0059989846   0.0018648031   0.0047157569   0.0059810623  -81.24756       132.63676     -32.892514     -6.5988347      2.5052806      3.5061884      3.2979848      12.705075      4.1521712      3.8388651     -17.038609      20.391384      1            
     96000   296.26989     -148.20189      1.2382051     -1282695.7      17718.122     -1300413.8     -45843.144     -1276537.9      12411.071      8666.686       889.49945     -27134.687      68.999503      73.649974      43.730053      222227.89      1.2382051      0.0019106035   0.0061779616   0.0080104053   0.0019087807   0.0061589563   0.0079784923  -63.086252     -2.1700099      110.30593     -0.13888345     58.98884      -14.026028     -35.153223     -18.933173     -18.082262     -16.548988      13.040061      4.9679051      1            
     98000   298.82804      67.01217       1.2376401     -1282331        17871.11      -1300202.1     -45838.435     -1276503.2      12558.167      8683.482       897.80947     -27134.375      69.042856      73.496265      43.813985      222329.33      1.2376401      0.0019544867   0.0075218494   0.0099030158   0.0019525792   0.0074937014   0.0098543023   67.702027     -95.376411      7.3043598     -55.71841       30.442918     -11.77822      -40.037588      9.89564        8.2962655      0.2408232      33.706301      5.90284        1            
    100000   300.06121     -46.732096      1.2332814     -1282402.3      17944.858     -1300347.1     -45865.502     -1276602        12636.059      8625.4706      858.88241     -27135.007      69.216797      73.440919      43.891393      223115.1       1.2332814      0.0019958771   0.0078698341   0.010753366    0.001993888    0.0078390285   0.01069596     22.580581      9.499128      -17.87432      -5.5992555      3.803962      -39.059159      26.201823      0.88818157     10.448873     -7.3569612     -5.4852407     -34.383431      1            
    102000   294.99714     -69.972627      1.2303082     -1282689.9      17642.007     -1300331.9     -45807.39      -1276690.7      12698.845      8578.856       888.49815     -27134.611      69.373634      73.382009      43.933235      223654.29      1.2303082      0.0020374288   0.0082904674   0.012883597    0.0020353561   0.0082562902   0.01280131     111.66287     -62.694886     -27.698053      3.0403769      51.042796     -14.649062     -4.4537309      3.1228232      16.227485     -14.213393      23.129377     -4.9422302      1            
    104000   298.76703     -243.47558      1.2315034     -1282398.1      17867.461     -1300265.6     -45899.043     -1276550.7      12578.521      8691.3537      914.27236     -27135.422      69.466825      73.244253      43.914156      223437.24      1.2315034      0.0020812854   0.0066839833   0.015281385    0.0020791225   0.0066617445   0.0151658      38.677247      29.823927      5.5093145      44.313318      44.465787      26.23378       23.03528      -7.5517402      18.519707      4.9097448     -0.58074556     10.599653      1            
    106000   296.48897      573.06085      1.2342799     -1282352.3      17731.224     -1300083.6     -45761.072     -1276567.1      12553.423      8773.4406      917.79523     -27135.417      69.519938      73.10983       43.862393      222934.6       1.2342799      0.0021252103   0.004446724    0.016973402    0.0021229552   0.0044368665   0.016830963   -29.814796     -25.332313     -119.04906     -8.4338215      45.869205     -4.5088382     -10.23585      -13.600698      17.472375      23.422191      10.510747      8.6386687      1            
    108000   299.41382      1166.9793      1.2327222     -1282558.3      17906.142     -1300464.4     -45775.231     -1276682.9      12508.836      8596.8578      887.98022     -27135.095      69.621074      73.16399       43.821561      223216.32      1.2327222      0.0021637056   0.0025667554   0.017570533    0.0021613682   0.0025634669   0.017417956   -112.29778     -144.44677     -97.98798       12.006002     -9.7144279      54.098844      2.7277369     -22.674665      8.5141869     -6.230288      -7.6140187     -12.120008      1            
    110000   298.28753      808.32463      1.2321083     -1282567.8      17838.785     -1300406.6     -45831.612     -1276646.9      12564.859      8610.7652      896.25465     -27135.467      69.586369      73.273432      43.799743      223327.53      1.2321083      0.0022004825   0.0010259312   0.017513152    0.002198065    0.0010254052   0.017361564   -112.48155     -56.516796     -76.712137     -25.020984      48.076106     -0.32925092     25.239533      4.884632      -2.8523359     -11.613929     -4.616183      -28.263553      1            
    112000   297.80685      1527.778       1.2343257     -1282407.5      17810.038     -1300217.5     -45752.916     -1276583.8      12590.971      8648.4655      879.77392     -27135.405      69.451803      73.29217       43.794571      222926.34      1.2343257      0.0022399183   0.00040418868  0.017832839    0.0022374135   0.00040410702  0.017675699   -217.60311     -173.11932     -73.68389      -21.829734      4.5013526     -7.485352       7.4388065     -8.8518861     -23.155258      3.919691      -7.3539333     -9.0807521      1            
    114000   297.38049      347.24945      1.2355588     -1282413.9      17784.54      -1300198.4     -45811.083     -1276573.3      12618.105      8690.0055      877.89278     -27135.074      69.337018      73.363484      43.78069       222703.84      1.2355588      0.0022777005   0.00024045032  0.018344542    0.0022751105   0.00024042141  0.018178311   -70.561581     -22.049249     -12.944323      45.716784      13.153438      77.022973     -34.342605      0.90509847    -19.3429       -7.4997901      23.960614      15.082596      1            
    116000   296.73643      547.20247      1.2368191     -1282676        17746.023     -1300422       -45846.815     -1276672.2      12531.969      8667.2323      897.84835     -27135.436      69.275193      73.316902      43.802926      222476.92      1.2368191      0.0023191326  -0.00083261217  0.017651148    0.0023164476  -0.00083295898  0.017497176   -32.79769      -63.836519     -69.70166      -7.0096965      42.501337      71.776269      25.779861      30.019019      15.623433     -3.0501233      7.2929803      21.069302      1            
    118000   297.74153     -73.8334        1.2397191     -1282356.9      17806.132     -1300163.1     -45764.046     -1276468        12480.026      8703.4091      885.57739     -27136.135      69.242956      73.174453      43.805917      221956.5       1.2397191      0.00236371    -0.0023097234   0.016799401    0.0023609208  -0.0023123949   0.016659852   -58.799459      57.991852      23.251115     -32.98342       35.81088       48.628026     -31.186759     -3.2292604     -16.50503       43.235226     -0.76738427     9.8264737      1            
    120000   297.17279      51.30434       1.2378267     -1282383.5      17772.119     -1300155.6     -45843.906     -1276534.9      12562.775      8767.1039      893.33563     -27135.292      69.348374      73.034154      43.890347      222295.82      1.2378267      0.0024083903  -0.0037813003   0.01538143     0.0024054948  -0.0037884675   0.015264335    32.072602     -34.240936     -13.426903      58.02175      -31.668013     -4.1687471     -16.972723     -38.118447      1.1985892     -1.5529978      25.792782      6.1386614      1            
    122000   294.2287      -783.38543      1.2328033     -1282714.4      17596.051     -1300310.4     -45916.896     -1276520.3      12602.321      8635.3266      889.1742      -27135.904      69.470406      73.003297      44.010373      223201.63      1.2328033      0.0024495649  -0.0057064726   0.013835188    0.0024465696  -0.0057228167   0.013740355    132.71691     -62.245154      167.65783      14.966025     -7.4685598      0.42745301    -8.4154876     -45.249172      17.207762     -10.678045      13.919636      26.501511      1            
    124000   296.1305      -407.29177      1.2308497     -1282557.3      17709.786     -1300267.1     -45838.282     -1276476.6      12525.191      8620.2919      902.27371     -27135.634      69.475946      73.061343      44.041694      223555.9       1.2308497      0.0024877435  -0.0070619045   0.012146772    0.0024846542  -0.0070869577   0.012073592   -42.519111      89.184287      77.141341     -19.55285       23.286625      10.311206      26.464328     -11.382951     -16.231691      13.348786     -31.352375      17.077832      1            
    126000   300.58412     -267.86239      1.230197      -1282290.4      17976.13      -1300266.5     -45846.058     -1276487.3      12491.848      8682.0212      892.91829     -27134.358      69.407444      73.121503      44.072261      223674.51      1.230197       0.0025257885  -0.0074225645   0.011043984    0.0025226041  -0.0074502488   0.010983445   -11.851738      99.292498     -6.0172882     -24.523104     -104.67918      70.502688      2.8698441      23.362658      9.212261      -6.3458173      1.4776477      11.716035      1            
    128000   295.96739     -766.7056       1.2320532     -1282488.2      17700.031     -1300188.2     -45954.717     -1276385.9      12534.835      8722.0228      895.46519     -27133.664      69.354613      73.101327      44.051539      223337.52      1.2320532      0.0025665884  -0.0072799529   0.010477261    0.0025633003  -0.0073065811   0.010422755    125.12686      47.807212      60.125263      44.567648      3.7613147     -14.846431     -12.288984      2.3200306      11.028022     -2.4027267     -11.15017      -7.131356       1            
    130000   298.43082     -635.15377      1.2353297     -1282549.4      17847.354     -1300396.8     -45960.197     -1276568.9      12521.549      8701.1926      909.60363     -27134.488      69.254741      73.082655      44.009299      222745.16      1.2353297      0.0026073571  -0.007227194    0.010135912    0.0026039639  -0.0072534367   0.010084888   -1.6418295      81.081322      113.63138     -21.636589     -23.85175      -49.998875      1.1886345      10.254803     -15.363627     -3.1642431      1.9045313      6.9426683      1            
    132000   300.5264      -267.92105      1.2387773     -1282230.4      17972.679     -1300203.1     -45834.66      -1276498.5      12643.362      8612.5517      874.19494     -27134.541      69.155492      73.054043      43.967013      222125.23      1.2387773      0.002648507   -0.0072766012   0.0095443373   0.0026450059  -0.0073032048   0.0094990779  -12.010724      13.054477      80.397548     -76.260354      87.197306      20.108071     -11.265321      21.971546      8.2987147     -10.436242     -11.27654       2.3045392      1            
    134000   294.24612     -716.31507      1.2366397     -1282512.5      17597.093     -1300109.6     -45846.947     -1276459        12605.841      8722.817       867.70658     -27134.447      69.268469      73.068764      43.962321      222509.2       1.2366397      0.0026880941  -0.0075059083   0.0085716793   0.0026844876  -0.0075342194   0.0085351511   76.915457      40.442256      100.38416      13.432952     -21.725825     -33.700295     -46.673158     -25.759403     -16.998578     -0.19453022     0.82701521    -10.561483      1            
    136000   300.22399     -569.38539      1.2305615     -1282325.1      17954.593     -1300279.7     -45776.468     -1276530        12498.617      8658.6374      869.58268     -27134.846      69.415243      73.191516      44.012115      223608.25      1.2305615      0.0027236391  -0.0070287389   0.0078899053   0.0027199367  -0.0070535569   0.0078589428   100.12249     -41.968134      114.92457      43.838245     -71.635157     -54.410982      37.379248      10.709154      46.829229     -6.4795596     -16.285518     -1.4091208      1            
    138000   303.13277      198.68649      1.2281305     -1281907.9      18128.55      -1300036.5     -45774.75      -1276566.7      12652.078      8759.2241      893.66877     -27134.358      69.480473      73.342501      43.967134      224050.87      1.2281305      0.002758003   -0.0053057352   0.0078995025   0.0027542067  -0.0053198606   0.0078684648   6.551026      -52.222013     -14.724739      9.4923789      11.571489      31.942351     -15.099277     -1.3288225      23.003108      6.7008571      26.185877      0.74536403     1            
    140000   298.16297      911.88422      1.2283699     -1282300.5      17831.336     -1300131.9     -45736.373     -1276465.8      12581.802      8617.341       871.1403      -27134.553      69.532634      73.440256      43.86712       224007.21      1.2283699      0.0027942496  -0.0039942264   0.0077164388   0.0027903529  -0.0040022247   0.0076868193  -123.77388     -101.82511     -51.591019      15.254137     -19.22303       76.680584      25.084144     -22.43276      -3.6791159      0.49606967     16.871814     -5.3399887      1            
    142000   297.51798      560.0609       1.2288678     -1282453.4      17792.763     -1300246.1     -45724.171     -1276645.4      12605.714      8629.1927      888.5217      -27134.073      69.505825      73.539106      43.807296      223916.45      1.2288678      0.0028303576  -0.003235846    0.0070572285   0.0028263597  -0.0032410926   0.0070324428   0.57044885    -48.761351     -122.05361     -7.1391628     -74.014519      59.002545      13.60592      -4.4400936      7.8192792      19.812725     -10.088145     -12.235837      1            
    144000   301.2015       1031.4274      1.2308648     -1282140.5      18013.052     -1300153.6     -45722.08      -1276477.8      12529.589      8627.4712      889.20021     -27134.457      69.440369      73.549447      43.771293      223553.16      1.2308648      0.002869818   -0.0016661852   0.0064002579   0.002865708   -0.0016675748   0.0063798632  -93.734618     -67.549538     -152.24399      14.850519     -8.1302742     -2.5733906     -21.984488     -13.75353      -27.007511      7.5651446     -15.034718      1.6474634      1            
    146000   298.93318      688.60388      1.2333876     -1282330.2      17877.398     -1300207.6     -45750.39      -1276554.3      12605.763      8607.9626      883.33915     -27135.032      69.336356      73.551744      43.745924      223095.9       1.2333876      0.0029095855  -0.00014378733  0.0049789206   0.0029053609  -0.00014379767  0.0049665668  -76.593768     -95.825904     -36.898691      4.678177       18.750218     -51.262286     -37.591385     -11.66311      -33.459329      5.1979399      0.1915054     -13.110276      1            
    148000   297.36598      1170.4253      1.2346886     -1282455.8      17783.672     -1300239.5     -45792.17      -1276548.7      12600.835      8634.5347      865.97394     -27135.928      69.286919      73.512893      43.754119      222860.81      1.2346886      0.0029510014   0.0013019708   0.0038042215   0.0029466557   0.001301124    0.0037970038  -57.325122     -127.06169     -171.39322      22.169114      104.32358      12.762322      5.7217332     -18.629827     -16.727261     -7.7901487      0.21142254     5.9865376      1            
    150000   296.13708      438.05936      1.2344218     -1282615.6      17710.18      -1300325.7     -45764.312     -1276623        12537.896      8642.4838      881.15934     -27135.467      69.208527      73.533309      43.800981      222908.97      1.2344218      0.0029900491   0.001480217    0.0029410385   0.0029855878   0.0014791225   0.0029367221   28.421918     -56.553225     -105.02779      33.753535     -26.264771     -42.597411     -15.160376     -3.5066288     -30.637339      5.1993193      7.7093862     -12.738965      1            
    152000   296.4595      -77.719233      1.233565      -1282437.2      17729.462     -1300166.7     -45889.514     -1276558.1      12654.302      8728.5463      898.09374     -27134.914      69.113752      73.516205      43.901724      223063.82      1.233565       0.0030306212   0.00044485784  0.0016194454   0.0030260381   0.00044475892  0.0016181355   16.646348     -0.86544314     7.8437992      0.78588975     68.079674      69.832306      11.201762     -0.43610326     14.391684      7.5477548      10.930775     -11.614803      1            
    154000   299.05692      536.86904      1.2353869     -1282325.3      17884.798     -1300210.1     -45826.639     -1276529        12546.632      8722.171       876.73        -27134.921      69.007278      73.403751      43.971877      222734.84      1.2353869      0.0030752014  -0.0019307228   0.00067948726  0.0030704827  -0.001932589    0.00067925651 -27.260263     -43.444238     -92.490265     -2.4817491     -66.818052     -3.0724305     -30.41761      -2.1656324      0.03401247    -0.4722852     -20.815751      1.7445239      1            
    156000   296.24909      177.56545      1.2363091     -1282692        17716.878     -1300408.8     -45815.04      -1276643.3      12566.537      8604.1547      878.80492     -27133.956      68.964714      73.306219      44.024693      222568.7       1.2363091      0.0031192835  -0.0031677105   0.0002360339   0.0031144286  -0.0031727383   0.00023600605 -32.037218     -3.5246587     -18.413581      7.904887       48.840312      17.231679     -44.030481     -29.899543     -1.8130008      17.011441      9.0367988     -30.636504      1            
    158000   298.62006      447.39639      1.234861      -1282526        17858.671     -1300384.7     -45774.012     -1276682.7      12495.286      8696.4963      880.26927     -27136.221      69.024873      73.291313      44.04686       222829.7       1.234861       0.0031599165  -0.0048283423   0.0010352153   0.0031549345  -0.0048400364   0.0010346798  -105.89743     -78.501921      48.402036     -88.839598     -39.899504     -10.961304     -19.155542     -15.007004     -50.6571       -4.415067       10.908262     -6.8902802      1            
    160000   299.73851      164.59234      1.2347057     -1282333.8      17925.56      -1300259.4     -45797.785     -1276636.6      12607.65       8683.0827      884.25419     -27134.832      69.068216      73.288336      44.026543      222857.72      1.2347057      0.0032000452  -0.0064931678   0.0019753889   0.0031949359  -0.0065143401   0.0019734404   59.240348     -61.702082     -47.570222      1.943403       45.666644      28.764219      2.1470828     -21.34104       12.575401      18.76479       3.5131082     -2.6758514      1            
    162000   299.34332      264.68502      1.2350222     -1282369.5      17901.926     -1300271.5     -45807.535     -1276492.4      12380.903      8754.2146      893.32357     -27135.423      69.091925      73.411167      43.926537      222800.62      1.2350222      0.0032346243  -0.0091507985   0.0030231037   0.0032294041  -0.0091929243   0.0030185433  -40.091946     -9.5906439     -30.775038     -57.563596     -44.031975      22.411858     -27.646766     -4.8808192     -19.41921       5.5804382     -17.65629      -6.3073639      1            
    164000   297.47824      324.72739      1.2344809     -1282544.1      17790.386     -1300334.5     -45748.545     -1276714.5      12564.085      8689.6674      874.79857     -27134.994      69.180663      73.527511      43.81998       222898.3       1.2344809      0.0032693763  -0.011771546    0.0055540004   0.0032640435  -0.011841379    0.0055386338  -3.8897779     -59.351617     -35.467615      75.583944     -61.027513     -38.946303     -13.591384     -10.45299      -16.049177     -9.9190301      0.92956323    -12.754254      1            
    166000   299.74782      309.7465       1.2311658     -1282375.1      17926.116     -1300301.2     -45793.893     -1276650.4      12592.158      8649.7117      901.23369     -27136.114      69.256247      73.694971      43.790287      223498.49      1.2311658      0.0033017268  -0.013251925    0.0083193472   0.003296288   -0.013340516    0.0082849322  -92.902297      69.793964     -71.046859     -86.647386     -16.417379      17.526858     -41.498997     -2.8891138     -18.596622     -18.198603     -19.914805      6.561304       1            
    168000   299.45053     -740.09765      1.2307564     -1282412        17908.337     -1300320.3     -45876.133     -1276576.9      12524.106      8706.7555      901.88848     -27135.127      69.321776      73.726495      43.744735      223572.85      1.2307564      0.0033400776  -0.013704602    0.0096974779   0.0033345119  -0.013799377    0.0096507592   108.87087      68.022148      48.078169      58.980313      18.525242      13.103397      15.532823      48.03937       13.031972     -3.6577695     -3.0218106     -30.244363      1            
    170000   296.73059     -392.30646      1.2368171     -1282430.6      17745.674     -1300176.3     -45834.037     -1276494.9      12533.895      8708.0122      910.71614     -27135.17       69.259103      73.5714        43.661614      222477.28      1.2368171      0.003386965   -0.013370813    0.011068396    0.0033812422  -0.013461008    0.011007589    13.862453      40.890651      64.498252      33.686293     -2.7639829      14.324824     -27.46855       12.312914     -38.699341      7.3702087      4.424668       12.451945      1            
    172000   297.06891     -977.29623      1.2404018     -1282632.3      17765.906     -1300398.2     -45794.616     -1276470.3      12365.569      8635.6167      865.52002     -27135.137      69.215557      73.36271       43.686744      221834.34      1.2404018      0.0034365593  -0.012754406    0.011746096    0.0034306678  -0.012836442    0.011677646    89.899942      95.935752      111.23793     -51.72311       32.683123     -22.460013     -17.520107     -4.0023162     -8.0945057      14.846647     -5.9246496      7.268194       1            
    174000   296.27133     -378.69624      1.2375597     -1282478.2      17718.208     -1300196.4     -45794.404     -1276492        12569.113      8627.436       893.48243     -27135.576      69.265761      73.293109      43.796885      222343.78      1.2375597      0.0034798203  -0.011222933    0.012213929    0.0034737798  -0.011286386    0.012139941    25.361857      58.899426      30.852908      64.382244      84.567305      9.8387722     -9.3219516     -10.301668     -24.121359      14.214286      21.522406      21.614146      1            
    176000   298.69171     -162.44563      1.2330005     -1282321.7      17862.957     -1300184.6     -45781.306     -1276465.1      12553.107      8629.3589      879.34213     -27135.75       69.34902       73.230581      43.943545      223165.93      1.2330005      0.0035228233  -0.0098249046   0.011775649    0.0035166327  -0.0098734875   0.011706855   -7.3182683     -11.217679      67.915357      35.823318      59.096198      27.122284      13.215159     -27.312784     -13.692542      8.9905156      0.95138289    -0.34474808     1            
    178000   294.89962     -47.958947      1.2301147     -1282511.8      17636.175     -1300148       -45810.843     -1276563.2      12565.714      8769.8678      890.47047     -27133.898      69.360333      73.247768      44.029116      223689.46      1.2301147      0.0035620191  -0.008529564    0.011597409    0.0035556901  -0.0085661489   0.011530675   -29.285789      32.665117      11.198992     -114.3978      -79.552328      12.514822      48.810963      19.951261      55.090749      24.134215      0.68408688    -4.8637045      1            
    180000   296.39915     -43.486537      1.2316608     -1282622.6      17725.853     -1300348.5     -45799.815     -1276650        12530.63       8670.8468      899.89073     -27135.851      69.243081      73.244381      44.050346      223408.67      1.2316608      0.003602208   -0.0074237564   0.012084556    0.0035957356  -0.0074514496   0.01201212     39.265131     -77.750021      51.70371      -6.3107028      37.666654      18.697455      6.5193293      1.9609255      15.743495      11.036331      10.870881     -35.224876      1            
    182000   300.54425      230.31396      1.2312194     -1282275.4      17973.746     -1300249.2     -45863.016     -1276482.2      12590.29       8622.8679      882.92279     -27134.719      69.105396      73.367359      44.079926      223488.77      1.2312194      0.0036361271  -0.0060388349   0.012943399    0.0036295324  -0.0060571425   0.012860349    43.492453     -129.05539      15.553253     -13.107012     -30.72584       68.9454        12.584702     -32.453258      49.712798      16.994847     -0.82019865     3.9460345      1            
    184000   297.08276     -25.07678       1.2321064     -1282540.8      17766.735     -1300307.5     -45758.767     -1276529.1      12525.261      8558.4708      896.59845     -27135.545      68.929977      73.505025      44.077582      223327.87      1.2321064      0.0036691994  -0.004957306    0.012687939    0.0036624843  -0.0049696342   0.012608122   -77.052462      77.385643      7.2895331     -28.221648     -3.9216239      60.296569     -4.7386168      20.905926     -2.170761       15.470734     -11.185896      23.135114      1            
    186000   299.98658      403.03594      1.2316671     -1282325.4      17940.395     -1300265.8     -45736.081     -1276528.6      12454.028      8643.9407      900.94168     -27134.237      68.842851      73.598533      44.093017      223407.54      1.2316671      0.0037043693  -0.0038030178   0.011988667    0.003697525   -0.0038102677   0.011917373   -45.623277     -54.19039      -22.69918       0.95017081    -37.38326       0.58993412     4.4604116      16.780096     -6.0393215      13.170474     -12.27066      -0.031333819    1            
    188000   299.62835      237.67346      1.2301728     -1282303.4      17918.971     -1300222.4     -45762.393     -1276550.8      12506.39       8669.4511      914.96384     -27135.017      68.891696      73.618926      44.103056      223678.91      1.2301728      0.0037431637  -0.0029051939   0.01033131     0.0037361755  -0.0029094222   0.010278307   -53.0692       -53.812158      34.634566      80.775929     -20.251113      35.901149      16.991187      16.63948       39.88013       26.282343      12.823378      6.4361417      1            
    190000   298.09776      131.79198      1.2332963     -1282498.7      17827.436     -1300326.2     -45754.508     -1276556.9      12452.123      8647.3595      885.74409     -27134.727      68.980171      73.539571      43.982343      223112.4       1.2332963      0.0037870663  -0.0024525508   0.0087336046   0.0037799134  -0.0024555633   0.0086956872  -37.923992     -41.894673      39.757197      18.801459      7.5630534      6.2586302     -23.236474     -38.649838     -3.1276213      11.449157      7.0626382      7.0877337      1            
    192000   300.2139      -192.60299      1.2341085     -1282143.2      17953.99      -1300097.2     -45773.094     -1276459        12522.941      8719.3009      892.7134      -27136.341      69.110358      73.54338       43.868327      222965.57      1.2341085      0.0038267315  -0.0029217587   0.0070602283   0.0038194282  -0.0029260354   0.0070354216  -3.1805356      110.93728     -49.210244      0.42346816     38.232385     -49.020186      33.933165      11.324946     -11.688931      7.2221091      12.407709     -11.159921      1            
    194000   298.59983      258.78293      1.2343704     -1282280.2      17857.462     -1300137.7     -45849.882     -1276586.1      12672.879      8735.0908      890.3399      -27136.355      69.205735      73.506105      43.820787      222918.27      1.2343704      0.0038685537  -0.0040448667   0.005281572    0.0038610901  -0.0040530693   0.0052676734  -114.21328     -21.172583      56.722323      33.87943       6.4372398      40.395881     -25.236398     -17.44811       9.5620513      24.928309      19.792187     -6.6288092      1            
    196000   297.56785      136.42003      1.2336478     -1282490.3      17795.745     -1300286.1     -45776.363     -1276512.6      12505.689      8617.5528      879.63968     -27135.485      69.34036       73.454129      43.792288      223048.83      1.2336478      0.0039112008  -0.0057244378   0.0047101953   0.003903572   -0.0057408852   0.004699137   -3.4273253     -27.681173     -10.35978       33.626679      77.82913       22.033255     -12.071537     -2.4435948      7.9502614      13.820399      8.7036713     -7.657192       1            
    198000   297.28878     -245.01795      1.2314182     -1282260.9      17779.056     -1300039.9     -45842.186     -1276460.3      12682.308      8673.9792      906.22992     -27136.188      69.464719      73.366063      43.845607      223452.69      1.2314182      0.0039558533  -0.0068324018   0.004194049    0.0039480495  -0.0068558495   0.0041852785   4.5975345      57.267356      12.61444       33.751289     -42.520505     -60.524688      29.854526     -12.951235      22.759672     -2.8849596      3.0163175     -8.8997184      1            
    200000   300.01515      254.79953      1.2333537     -1282273.9      17942.103     -1300216       -45806.655     -1276577.7      12532.659      8746.0134      889.58508     -27134.747      69.433907      73.25005       43.865591      223102.03      1.2333537      0.0040021395  -0.0073253783   0.0039928412   0.0039941522  -0.0073523407   0.003984891   -27.478393     -42.130259     -7.8440346      1.8244061     -1.8913768     -4.3747122      39.752855     -17.332199      14.817636     -6.5768763     -3.4516411      12.637553      1            
    202000   299.10279      658.22883      1.235497      -1282476        17887.541     -1300363.6     -45846.819     -1276618.4      12470.576      8765.4451      865.61171     -27134.947      69.388436      73.166833      43.868028      222715         1.235497       0.0040467578  -0.0085447712   0.0042380806   0.0040385917  -0.008581487    0.0042291252  -66.99989      -128.74093     -4.344291      -12.843144     -35.123192      1.8534492      36.26714      -0.97296543     11.124317     -16.777675     -14.822841      16.74359       1            
    204000   301.2006      -288.99399      1.2364275     -1282201.5      18012.998     -1300214.5     -45888.96      -1276554.8      12593.547      8751.0686      884.67454     -27135.23       69.371005      73.157009      43.851915      222547.39      1.2364275      0.0040873731  -0.010397347    0.0044882258   0.0040790424  -0.010451777    0.0044781838   7.4073809      23.383624      57.055942      17.60995      -3.7529883     -48.119751      18.40038       0.64974054     27.780181     -11.951387     -8.2448293     -16.962971      1            
    206000   297.17247      151.08641      1.2364158     -1282292.6      17772.1       -1300064.7     -45819.714     -1276491.6      12642.333      8698.4871      905.87176     -27135.053      69.382429      73.232377      43.799986      222549.49      1.2364158      0.0041231971  -0.012335999    0.0071844158   0.00411472    -0.012412719    0.0071587308   85.778066     -49.524964     -82.179592     -32.812197     -41.489811     -29.172199      10.050978     -1.6083339      1.2530646      5.9855908     -8.3968354     -19.183583      1            
    208000   300.20184      1234.3012      1.2357121     -1282479.8      17953.268     -1300433       -45759.972     -1276639.8      12512.757      8586.7648      867.22236     -27134.13       69.380991      73.33722       43.763182      222676.22      1.2357121      0.0041572761  -0.013876852    0.010615061    0.0041486585  -0.013974035    0.010559117   -192.1061      -121.54443     -61.54617      -36.540429     -10.446825      37.061367     -10.876142      7.0208613     -8.1165963      9.8363469     -8.0960966      18.78511       1            
    210000   298.64978      518.47347      1.2348582     -1282350        17860.449     -1300210.5     -45923.159     -1276575.5      12628.407      8770.7568      889.07004     -27136.293      69.455786      73.30376       43.766256      222830.21      1.2348582      0.0041991652  -0.014311553    0.012600641    0.0041903733  -0.014414951    0.012521913   -11.418474     -100.29856     -45.885939     -5.725544      -69.842301     -11.537223      5.7327811      46.181307     -21.076724     -2.9559315     -23.783378      34.846656      1            
    212000   299.07361      674.1958       1.2377513     -1282214.7      17885.796     -1300100.5     -45848.778     -1276588.4      12657.057      8769.5158      910.17635     -27135.609      69.440112      73.148327      43.766613      222309.36      1.2377513      0.0042481644  -0.013058756    0.013182272    0.0042391665  -0.013144771    0.013096142   -130.44676     -40.090478     -34.401433      38.232947     -123.79884     -74.056306      8.6574248     -10.826481      6.2081199      7.0257098     -7.283157       6.3381148      1            
    214000   296.24985      376.17755      1.2398879     -1282504.1      17716.924     -1300221       -45879.427     -1276547.9      12594.379      8712.0634      899.83386     -27135.824      69.415957      73.095607      43.737921      221926.28      1.2398879      0.0042913339  -0.011096975    0.013398637    0.0042821523  -0.011159006    0.013309669   -93.983482      5.680467      -26.045555     -4.6510185      10.506335      1.8311896      7.0374008     -15.989549      6.2908805      22.466357      18.871852      3.2984266      1            
    216000   298.78164      189.23347      1.2372853     -1282477.5      17868.335     -1300345.8     -45840.48      -1276597.5      12509.973      8682.0133      900.17169     -27134.976      69.410799      73.195524      43.773343      222393.09      1.2372853      0.0043255266  -0.0091422787   0.01317693     0.0043161984  -0.0091843258   0.013090869   -8.8871346      2.9042935     -51.539404      29.097979     -17.058209      37.885819     -15.697581     -18.45462      -0.5549408      11.189842     -5.553727      -3.6773546      1            
    218000   301.73064      209.49479      1.2308132     -1282141.4      18044.697     -1300186       -45795.136     -1276576.4      12582.069      8721.1372      882.2973      -27136.077      69.524983      73.351257      43.837981      223562.52      1.2308132      0.0043563088  -0.0074840482   0.011875675    0.0043468475  -0.0075121942   0.011805712   -24.847513     -44.731618      5.8979533      13.604384      75.729504     -24.649917     -32.93583      -29.165568     -50.482208      9.8593891     -13.937525     -7.9196947      1            
    220000   298.10915      734.58182      1.2266758     -1282431.5      17828.117     -1300259.6     -45760.988     -1276623.8      12574.136      8647.786       903.24341     -27135.633      69.510928      73.50771       43.901097      224316.57      1.2266758      0.0043869176  -0.0060821863   0.010049487    0.0043773231  -0.0061007581   0.0099993266  -101.6278      -66.56999      -55.096722      26.813989      83.780459      15.054435      38.078382      6.1694167      23.881605     -12.124366      7.431019       6.2747031      1            
    222000   297.35905     -388.79941      1.228049      -1282362.1      17783.259     -1300145.3     -45789.07      -1276634.5      12586.378      8773.0054      918.86726     -27135.319      69.409316      73.520614      43.908496      224065.73      1.228049       0.0044260211  -0.005264721    0.0083262276   0.0044162551  -0.0052786285   0.0082917558   45.773282      64.014428      8.3975918     -20.616182      16.234707      27.394228     -1.0601764      13.07083       15.580211      21.256214      7.6445698     -16.703561      1            
    224000   302.64058      589.67048      1.232446      -1282301        18099.115     -1300400.1     -45752.734     -1276668.3      12470.219      8661.3379      889.40793     -27136.018      69.274898      73.415045      43.899775      223266.34      1.232446       0.0044723165  -0.0036118511   0.0073131185   0.0044623454  -0.0036183896   0.0072865073  -59.815171     -82.328303     -37.10161      -54.06601      -5.3255619      11.893901      18.955889      35.728613     -5.3830738      3.2048788     -0.89441712     14.378156      1            
    226000   295.92992     -388.80881      1.2371042     -1282576.2      17697.791     -1300274       -45864.083     -1276639.7      12622.952      8698.4339      908.35038     -27136.076      69.125883      73.331829      43.878488      222425.64      1.2371042      0.0045173677  -0.0024228129   0.0059770614   0.004507195   -0.0024257527   0.0059592696   51.45755      -11.796258      78.526867     -0.41972495     34.602857      33.185192     -3.864209       18.432761      53.069316     -8.2649584     -1.3240949     -11.603213      1            
    228000   300.80507      74.659217      1.2398909     -1282302.4      17989.344     -1300291.7     -45862.221     -1276620.9      12540.539      8729.5184      921.30685     -27135.769      69.07392       73.317764      43.821209      221925.73      1.2398909      0.0045582181  -0.0017823664   0.0045120029   0.0045478609  -0.0017839567   0.0045018544   50.433497     -60.610191     -12.517841     -26.81901      -85.546566     -16.464156     -15.745342     -25.480862     -23.854275     -10.849513      8.3998428      3.3267571      1            
    230000   299.83672      27.161124      1.2368972     -1282375.4      17931.433     -1300306.8     -45888.902     -1276653.3      12591.096      8731.8715      912.42022     -27135.763      69.167212      73.403615      43.816715      222462.87      1.2368972      0.004592824   -0.00076210556  0.0038091375   0.0045823092  -0.00076239611  0.0038019011  -27.563899      8.7778229      10.529774     -7.9385403     -12.017533     -24.128627     -2.3761678     -21.403176      6.6552329     -3.9713719     -12.321033      6.8810721      1            
    232000   295.78339      681.47592      1.2318094     -1282482.2      17689.027     -1300171.2     -45767.901     -1276597.7      12586.135      8713.1946      895.04749     -27136.425      69.360449      73.499519      43.817868      223381.72      1.2318094      0.0046267162   0.00062335105  0.0030291197   0.0046160458   0.00062315685  0.0030245412  -79.132105     -40.832914     -87.186623      2.4891978      26.669918     -4.0388388      20.696929      23.415577      6.4271608      27.685158     -29.084066      2.1690236      1            
    234000   302.1452       18.016694      1.2306976     -1282095.3      18069.489     -1300164.8     -45687.623     -1276634.6      12534.971      8732.8573      889.52304     -27135.715      69.428213      73.486456      43.822434      223583.52      1.2306976      0.0046674306   0.0011641013   0.0017791818   0.004656572    0.0011634243   0.001777601    23.120744     -20.78198      -7.8153886      12.334443      6.2498569      2.6527713      0.44373928     37.926291     -20.883839     -6.4421555     -4.9084124     -12.28265       1            
    236000   296.11337      541.35404      1.229169      -1282335        17708.762     -1300043.7     -45752.977     -1276525.5      12579.339      8741.0253      914.41035     -27134.373      69.462129      73.521682      43.834496      223861.57      1.229169       0.0047050672   0.00010285046  0.0016540909   0.004694033    0.00010284517  0.0016527244  -82.939583     -27.327318     -54.291192     -18.009054     -9.5637037     -29.757585      21.611723      41.334598      13.637261      11.153757      25.79574       11.928697      1            
    238000   297.7569       494.54991      1.2307258     -1282401        17807.051     -1300208.1     -45713.208     -1276661.6      12623.187      8661.4331      882.07772     -27134.349      69.389442      73.477511      43.851252      223578.39      1.2307258      0.0047477925  -0.00092148955  0.0023925894   0.0047365572  -0.00092191438  0.0023897318   16.431627     -65.798659     -100.96378     -41.693233     -5.9497159     -66.758488      10.544471      0.92912434     6.4409292      6.1352555      14.065828     -16.75593       1            
    240000   298.85923     -618.96327      1.2311747     -1282365.4      17872.975     -1300238.4     -45841.919     -1276633.6      12689.955      8657.2236      889.88875     -27134.013      69.296164      73.448488      43.911614      223496.88      1.2311747      0.0047895811  -0.0012361123   0.0040809983   0.0047781475  -0.0012368769   0.0040726936   143.4978       61.13416      -16.482599      82.230231      54.863823      28.590669      22.708797      38.935066      30.015474      6.1916708      3.7612189     -21.519778      1            
    242000   297.39495     -224.79035      1.2367245     -1282373.8      17785.405     -1300159.2     -45833.132     -1276466.6      12542.055      8685.5005      913.01147     -27136.076      69.066107      73.387752      43.896473      222493.94      1.2367245      0.0048334905  -0.0013860907   0.0060120293   0.0048218467  -0.0013870522   0.0059940292   36.272911     -27.660876      59.718613     -12.658497      17.762621      33.467797     -17.551486     -0.76059382     3.8685604     -2.5674676      7.496424       20.682253      1            
    244000   294.5878       456.27341      1.2398487     -1282617.4      17617.527     -1300234.9     -45846.23      -1276468.9      12490.481      8698.9498      890.76836     -27135.048      68.964353      73.381132      43.854421      221933.29      1.2398487      0.0048738758  -0.0012886745   0.0069538638   0.0048620369  -0.0012895055   0.0069297972   24.683102     -15.675853     -147.70296     -19.494085      47.741622      18.538675      11.767765      20.408364      25.235706     -11.394249     -7.2102284     -19.791825      1            
    246000   295.56952     -373.14154      1.238384      -1282346.5      17676.237     -1300022.7     -45803.718     -1276451        12571.787      8745.5679      914.65517     -27135.629      68.998791      73.403732      43.870864      222195.78      1.238384       0.004912312   -0.00060894621  0.0070950891   0.004900286   -0.00060913169  0.0070700373   9.532935      -3.4683687      107.36113      22.860547      22.262907     -83.338816     -16.202092     -7.0514355     -14.123007      5.1519286      2.8994907     -5.3334151      1            
    248000   300.52166     -752.85865      1.2328533     -1282352.3      17972.395     -1300324.7     -45871.229     -1276528.2      12531.359      8652.5287      890.9116      -27135.885      69.150529      73.375496      43.987896      223192.58      1.2328533      0.0049541545  -0.00037683391  0.0077781133   0.0049419231  -0.00037690493  0.0077480197   127.12065      51.80898       49.92058      -5.4903105     -7.3648731     -5.552252      -7.0640069      27.268342      30.934881     -9.809226       7.1396117     -5.9942628      1            
    250000   296.63592     -609.02884      1.2348334     -1282521.9      17740.012     -1300261.9     -45813.227     -1276414.2      12519.911      8560.0332      885.57574     -27135.526      69.194779      73.107499      44.050164      222834.68      1.2348334      0.0050124138  -0.0011441764   0.007913655    0.0049998935  -0.0011448315   0.0078825063   22.306992      73.145599      89.676951     -65.585511     -59.468859     -10.968232      2.6220853      34.348608      43.960631     -10.051546      26.203154     -2.875323       1            
    252000   297.10996      464.156        1.2407276     -1282412.1      17768.362     -1300180.5     -45858.202     -1276588.8      12624.463      8744.0257      898.01857     -27134.379      69.233726      72.750809      44.031063      221776.08      1.2407276      0.005077284   -0.0030640263   0.0085288094   0.0050644381  -0.00306873     0.0084926446  -25.312276     -96.395349     -19.384197      62.898287      7.0527495      51.062978     -16.330825     -11.840254      4.8542111     -1.6316074      2.5739529     -10.447154      1            
    254000   297.23562      217.89253      1.2394463     -1282572.4      17775.877     -1300348.3     -45890.341     -1276633.8      12557.729      8696.6304      921.50534     -27134.861      69.339266      72.681544      44.051433      222005.34      1.2394463      0.0051224561  -0.0039921637   0.0088843734   0.005109381   -0.0040001536   0.0088451395  -56.321106     -58.50992       48.597145      63.039318      28.771215      46.386902     -20.53658      -18.373627      14.707784      17.035347     -14.124697      24.569537      1            
    256000   296.22513      672.74925      1.2378774     -1282577.2      17715.445     -1300292.6     -45905.248     -1276606.1      12545.349      8787.4419      885.97393     -27135.021      69.400594      72.816508      43.986607      222286.71      1.2378774      0.0051532207  -0.0049062366   0.0080161305   0.0051399883  -0.0049183117   0.007984172   -115.26332     -73.733229     -15.502408     -2.7209515     -25.302603      34.459104     -12.638962      8.0795618     -5.4166279      8.3816985     -6.3648327      9.4293382      1            
    258000   298.53631     -5.4310572      1.2367087     -1282358.3      17853.663     -1300212       -45853.085     -1276481.1      12598.819      8627.528       895.83078     -27134.493      69.444434      72.991304      43.895011      222496.78      1.2367087      0.0051810427  -0.0056928068   0.0070630672   0.0051676672  -0.0057090726   0.0070382405   17.482928     -28.435337      12.603314     -65.603576      63.856892     -47.8698        5.9446105     -41.329073     -2.5606022      4.6165193     -5.0080694     -10.720298      1            
    260000   299.49059      303.38888      1.2351474     -1282457.6      17910.733     -1300368.4     -45899.139     -1276597.9      12481.413      8776.7854      870.4917      -27135.018      69.439644      73.149202      43.858652      222778.03      1.2351474      0.0052099349  -0.006808694    0.0071742724   0.0051964102  -0.006831979    0.0071486597  -51.945124     -49.058401      8.7808901      48.37337      -46.846073     -20.089153     -21.92838      -5.5450587     -12.772722      10.060028      8.8704523      14.627599      1            
    262000   297.95953     -730.11955      1.2327648     -1282596.7      17819.17      -1300415.9     -45844.972     -1276560        12505.94       8623.6536      859.54844     -27135.505      69.487416      73.27701       43.836617      223208.61      1.2327648      0.0052408538  -0.007644956    0.0074650105   0.0052271683  -0.0076743285   0.0074372852   115.13018      90.095873      16.712038      114.26838      8.6015771      26.714496     -21.063463     -17.671069      13.92581      -1.3176553      1.3360013     -24.789154      1            
    264000   299.06064     -431.35177      1.2312669     -1282374.2      17885.02      -1300259.2     -45814.221     -1276590.1      12573.21       8676.6603      895.18528     -27134.773      69.491498      73.368224      43.832804      223480.14      1.2312669      0.0052742944  -0.0083779555   0.009291848    0.005260434   -0.0084132478   0.0092489443   72.65716       79.509008     -21.046014      46.993136      41.361303     -25.415561     -9.0719509     -54.43466      -12.299212      7.1175986      29.315308     -15.593985      1            
    266000   297.51983     -574.174        1.2339511     -1282370.6      17792.873     -1300163.5     -45865.137     -1276424.8      12440.15       8815.8101      870.49748     -27134.615      69.335478      73.460655      43.780717      222994         1.2339511      0.0053075639  -0.010001341    0.0129817      0.0052935285  -0.01005169     0.01289816     61.519346      18.031011      94.984185      62.990514     -76.820798      59.906556     -36.548862     -34.003393     -32.661061     -2.7567443      10.989788     -20.626517      1            
    268000   296.57788     -491.11945      1.2354901     -1282591.8      17736.541     -1300328.3     -45810.939     -1276620.2      12464.224      8741.5081      897.13028     -27134.688      69.252288      73.51476       43.746488      222716.23      1.2354901      0.0053435341  -0.01104648     0.015750176    0.0053293081  -0.011107945    0.015627429    13.848462      8.6179067      126.82167      85.446767     -54.265508     -72.033962     -10.012123      0.21231054    -13.995281     -6.2866488      2.8257784     -3.0137262      1            
    270000   300.11723     -1097.5284      1.2347195     -1282316.8      17948.208     -1300265       -45843.351     -1276495.7      12527.935      8664.3422      881.74249     -27134.141      69.260268      73.568425      43.73682       222855.23      1.2347195      0.0053794836  -0.012528049    0.016619582    0.0053650659  -0.012607186    0.016482988    79.677285      145.58714      108.35677      3.9509009     -32.825244      9.4943475      23.639903      37.40721       1.6081096     -13.451849     -12.111178      3.9853368      1            
    272000   299.84455     -293.48753      1.2359095     -1282287.5      17931.901     -1300219.4     -45872.833     -1276574.7      12678.47       8643.248       906.43697     -27134.781      69.249553      73.534043      43.721903      222640.66      1.2359095      0.0054218647  -0.013731827    0.016706696    0.0054072193  -0.013826981    0.016568674   -1.1554242      24.117821      66.250475      48.017056     -22.388768      47.312984     -10.232375      2.1108612      25.810763     -21.067062     -11.031297     -4.965189       1            
    274000   299.26955     -367.7565       1.2370355     -1282412.8      17897.514     -1300310.3     -45969.052     -1276591        12602.979      8756.9464      889.84348     -27134.613      69.287783      73.483885      43.687805      222438.01      1.2370355      0.0054654585  -0.014980781    0.017315086    0.0054505771  -0.015094127    0.017166888    89.89478       27.020436     -5.1264339      19.958659      43.58122      -47.759189      27.430529     -10.651327      49.159465     -4.1223265     -15.423533      9.8271341      1            
    276000   298.18115     -216.07738      1.2397347     -1282462.7      17832.423     -1300295.1     -45883.727     -1276410.7      12489.944      8614.3648      894.99348     -27134.543      69.247191      73.465211      43.629326      221953.7       1.2397347      0.0055067509  -0.015816772    0.017734764    0.0054916442  -0.015943191    0.017579338    64.147123      2.6648338     -1.1298363      3.9899815      29.171821      50.116579      19.018062     -2.1206169     -40.660296      1.4578492     -6.0893997      7.7447174      1            
    278000   297.0652      -52.37495       1.2392798     -1282598        17765.685     -1300363.7     -45860.969     -1276549.9      12474.1        8683.5998      889.47322     -27132.972      69.158424      73.466588      43.700543      222035.18      1.2392798      0.0055465502  -0.015840254    0.016600973    0.0055312247  -0.015967052    0.016464683    41.034475      5.2012704     -30.31507      -88.276309     -17.473187      41.520721     -32.625547      7.2976112     -47.823941     -13.649409     -0.27061196     14.069018      1            
[...]
   5940000   298.91418      209.1231       1.2281642     -1282208.3      17876.261     -1300084.5     -45736.842     -1276540.5      12691.186      8636.3194      865.36245     -27133.129      69.09845       73.471183      44.131568      224044.71      1.2281642      0.11795629    -0.015845497    0.014646832    0.11150228    -0.015972379    0.014540603    27.025008     -64.579222     -26.013982      44.987422      5.1556856     -10.975143     -6.2646267     -14.567176      4.7994007      55.394802      5.0400497     -10.339088      1            
   5942000   300.10599      376.05004      1.2277973     -1282302.2      17947.536     -1300249.7     -45849.253     -1276530.5      12653.891      8599.776       876.35802     -27134.187      69.085155      73.576639      44.08997       224111.68      1.2277973      0.11782808    -0.017581638    0.015258208    0.11138759    -0.01773803     0.015142972   -128.11459      4.7120979      9.0926852      58.226386     -34.810523      28.450745     -15.033562     -12.980383      8.563262       51.489663     -26.69443       4.2700772      1            
   5944000   297.2692       281.70414      1.2284528     -1282470        17777.885     -1300247.8     -45787.533     -1276645.8      12683.168      8628.6336      873.70613     -27133.938      69.108905      73.699604      43.977802      223992.09      1.2284528      0.11767253    -0.018535804    0.01577623     0.11124842    -0.018709745    0.015653078    40.508585     -1.6861495     -124.45345      55.454505     -80.656733     -23.869416     -11.880938     -18.695224     -15.256616      48.542226     -29.964738      6.0166051      1            
   5946000   301.16468      801.47308      1.2279817     -1282240.5      18010.85      -1300251.3     -45664.621     -1276613.8      12553.274      8592.5694      881.22606     -27134.218      69.140416      73.853567      43.882948      224078.02      1.2279817      0.11746862    -0.017878508    0.015888978    0.11106596    -0.018040259    0.01576407    -138.7319      -43.570114     -61.325768      42.346416     -74.312137      56.269963     -4.7827186      24.909493     -35.696926      40.464366     -6.9316713      23.935011      1            
   5948000   298.24564     -272.7515       1.2263139     -1282246.8      17836.28      -1300083.1     -45836.977     -1276579.1      12706.724      8729.9973      896.32482     -27134.176      69.243165      73.993624      43.79437       224382.76      1.2263139      0.11728738    -0.016600281    0.015159832    0.11090377    -0.01673961     0.01504607     7.1576482      57.273227      18.478763      23.843044     -0.21805754     23.765486     -27.823617      0.054349821   -27.363088      34.326454     -16.226248     -2.8979066      1            
   5950000   295.84888      666.64803      1.2304552     -1282507.4      17692.944     -1300200.4     -45755.93      -1276567.6      12588.666      8636.7112      897.78377     -27134.443      69.209635      73.963316      43.686015      223627.58      1.2304552      0.11737409    -0.015345836    0.014469371    0.11098137    -0.015464802    0.014365688    2.1053972     -62.708628     -142.04111      28.502926     -50.251081      10.367448      1.3635205      30.94301      -35.068598      71.920443      18.031878     -13.343186      1            
   5952000   299.47441     -329.03272      1.2330017     -1282189.2      17909.765     -1300099       -45751.479     -1276609.3      12618.414      8744.3378      899.06322     -27135.291      69.134517      73.906345      43.676801      223165.72      1.2330017      0.11750286    -0.014207799    0.014359347    0.11109661    -0.014309696    0.014257228    40.165802      5.2649238      54.586996      94.895864     -4.6968358     -62.354252     -37.726546     -3.7281295     -4.1748223      69.213934     -13.303531     -10.321294      1            
   5954000   298.6756      -80.955889      1.2328762     -1282462.6      17861.993     -1300324.6     -45766.978     -1276580.7      12512.822      8636.2412      874.02373     -27134.742      69.224424      73.746884      43.718842      223188.43      1.2328762      0.1177938     -0.012975765    0.014680932    0.11135692    -0.013060686    0.01457421    -49.20568       22.833733      50.980514      119.76689      12.655886     -23.966765      47.271282      10.171144     -17.006668      89.58903       21.038228     -10.801335      1            
   5956000   297.43188     -558.11898      1.2339736     -1282447.4      17787.614     -1300235       -45772.384     -1276620.4      12596.291      8677.7404      883.74333     -27134.767      69.241964      73.569313      43.7743        222989.95      1.2339736      0.11811478    -0.0132018      0.016084648    0.11164403    -0.013289718    0.01595666     90.878122      11.06272       67.713375      63.638726     -35.019988     -2.3589234      2.3653498     -9.940045      -46.859142      80.19041       18.331648     -3.8757954      1            
   5958000   297.64168      72.874137      1.2326818     -1282248.8      17800.16      -1300049       -45775.621     -1276557.7      12583.673      8802.8495      897.78721     -27134.564      69.193169      73.507211      43.888123      223223.63      1.2326818      0.11825297    -0.014413806    0.017533093    0.11176762    -0.014518694    0.017381162    2.1508156     -11.543585     -12.759146     -1.9801949     -6.1203134      24.268762      20.178651      2.4016238      3.8940758      50.998305      7.4576791     -3.0967075      1            
   5960000   300.69063     -929.82036      1.2323307     -1281927.5      17982.5       -1299910       -45703.279     -1276476.9      12610.471      8759.7631      899.98234     -27132.941      69.118872      73.504594      43.949381      223287.23      1.2323307      0.11829646    -0.015995014    0.01816784     0.11180651    -0.016124315    0.018004777   -28.386307      117.63679      193.39166      12.793987     -16.343491     -14.523809     -33.579015     -3.2783312      10.161916      45.151683     -3.17991       -17.775888      1            
   5962000   297.07754     -130.52485      1.23206       -1282267.9      17766.423     -1300034.4     -45793.348     -1276569.3      12723.456      8711.5667      893.24634     -27133.991      69.132241      73.506687      43.949283      223336.28      1.23206        0.11833245    -0.01729378     0.018886329    0.11183869    -0.017445064    0.018710196    47.119928      48.828782     -56.272419      68.231478      56.825638     -7.1296434     -1.2851722      4.5415895      28.217977      39.518533     -34.113537      13.948994      1            
   5964000   297.15066     -325.76538      1.2321788     -1282494.4      17770.795     -1300265.2     -45760.912     -1276637.2      12551.999      8690.8448      890.07811     -27134.513      69.155198      73.515413      43.925245      223314.76      1.2321788      0.11835786    -0.01782041     0.019888471    0.11186141    -0.017981105    0.019693279    31.271664      0.16247383     67.590395      66.586863      40.132756     -53.107868     -49.325262      0.35094728    -6.056026       61.076593     -12.658813      0.35936558     1            
   5966000   301.07996      82.718964      1.2312136     -1282125.7      18005.784     -1300131.5     -45702.298     -1276522        12484.598      8720.6358      887.56303     -27134.677      69.330628      73.424348      43.90283       223489.82      1.2312136      0.11854265    -0.019138567    0.02053533     0.11202663    -0.019324081    0.020327323   -1.5932702     -29.621149      6.0699223     -1.9273659     -5.5627625     -53.09973       3.3682523     -12.565451      0.02696821     68.660751     -8.0722379     -1.1378019      1            
   5968000   297.48064     -343.74437      1.2309715     -1282283.2      17790.53      -1300073.7     -45798.232     -1276419.2      12531.592      8728.6456      883.4107      -27133.74       69.489628      73.357305      43.85103       223533.78      1.2309715      0.11868938    -0.020740838    0.021386848    0.1121578     -0.02095895     0.021161359    56.836497      58.060672     -10.407474      13.662317      18.189081      61.98182       42.311761     -21.008197     -13.695697      46.285798      1.2515305      23.964608      1            
   5970000   295.90583      685.50539      1.2321403     -1282402.7      17696.35      -1300099.1     -45810.853     -1276569        12645.282      8739.7146      895.81189     -27134.05       69.470821      73.402593      43.794255      223321.73      1.2321403      0.11865622    -0.02096886     0.020850157    0.11212816    -0.021191829    0.020635767    19.733102     -54.329876     -173.77973      67.435197      10.990402      46.523666      5.777311       6.9316085      14.979718      61.855202      10.763736      6.0056051      1            
   5972000   299.63191     -453.45759      1.2350582     -1282027.5      17919.184     -1299946.7     -45758.451     -1276437.1      12612.757      8739.1515      896.96678     -27134.219      69.449257      73.41849       43.694894      222794.13      1.2350582      0.11867013    -0.021249659    0.019194305    0.1121406     -0.021478683    0.019012418   -1.9588123      110.72526      29.073323      48.894755     -29.30961       19.377527     -38.799826     -8.5600608     -27.760805      82.581847     -7.3591665      2.5717024      1            
   5974000   298.90746     -170.18772      1.2352002     -1282306.6      17875.859     -1300182.5     -45730.211     -1276569.8      12613.519      8610.9649      893.03244     -27133.607      69.52183       73.455101      43.62251       222768.51      1.2352002      0.11865089    -0.019480493    0.017148784    0.1121234     -0.019672738    0.017003403    39.172631      10.59246       1.9677228      124.03432      48.451971     -39.50643      -0.24263539     13.450874     -14.637736      48.114767     -1.8493762      9.1485523      1            
   5976000   298.7838      -473.04197      1.2338832     -1282383.7      17868.464     -1300252.2     -45806.675     -1276555.7      12645.948      8562.7855      901.48696     -27133.013      69.593308      73.489132      43.604019      223006.29      1.2338832      0.11863579    -0.016756531    0.014604778    0.1121099     -0.01689851     0.014499156   -10.871982      50.65751       104.0074       29.374616     -87.72647      -73.698062      12.245695      24.164574      13.636123      55.376029     -22.700099     -27.350372      1            
   5978000   301.58791     -786.64331      1.2326633     -1282175.7      18036.161     -1300211.9     -45856.987     -1276573.3      12649.498      8675.1706      893.73677     -27133.875      69.584955      73.587784      43.59389       223226.99      1.2326633      0.11851752    -0.01304987     0.01365423     0.11200416    -0.013135767    0.013561851    108.5798       80.123621      50.416476      1.9092605      1.1747952     -4.2325098      1.0990886     -1.377641      -1.946391       66.506121     -4.8082463      14.220817      1            
   5980000   297.89703     -299.0628       1.2296699     -1282237.9      17815.432     -1300053.3     -45802.596     -1276532.9      12627.647      8760.1573      894.35191     -27134.706      69.541468      73.742271      43.63573       223770.38      1.2296699      0.11831074    -0.009312288    0.012871882    0.11181928    -0.0093559184   0.012789744   -27.140507      36.209517      81.838604      9.8455737     -29.357145      6.2636766     -6.5977848      22.230904     -2.0586821      57.907445     -12.714557      21.093652      1            
   5982000   297.58714     -480.95048      1.2289451     -1282429        17796.899     -1300225.9     -45797.332     -1276561.4      12610.654      8639.1669      883.03605     -27134.345      69.500013      73.770162      43.670991      223902.36      1.2289451      0.11830561    -0.0071551409   0.012493417    0.11181469    -0.0071808617   0.012416018    33.81999       40.122248      72.254685     -15.985865     -4.3507237      78.945284     -0.7221831     -2.3826022     -9.5011873      45.904725      15.623532     -5.9600507      1            
   5984000   300.519       -762.58917      1.2295609     -1282104.7      17972.236     -1300077       -45819.654     -1276446.7      12549.034      8733.7962      906.54729     -27134.392      69.428012      73.741534      43.711348      223790.22      1.2295609      0.11839031    -0.0071129831   0.01178563     0.11189043    -0.007138401    0.01171672     42.702504      95.710336      93.395202      81.229226      57.85954      -5.8617987     -5.743384      -19.028931     -33.796679      61.117051      22.882891      5.910121       1            
   5986000   298.00812     -267.39687      1.2304047     -1282232.4      17822.075     -1300054.5     -45776.739     -1276475.2      12625.457      8672.1395      899.86739     -27134.682      69.35867       73.68534       43.758388      223636.75      1.2304047      0.11851899    -0.0082347798   0.010958317    0.11200548    -0.0082688729   0.01089871     27.579273      79.878802     -26.176111      6.5373095     -21.562229      16.948491      3.7898846     -5.6249808     -9.8804161      40.466215      1.3626528      1.2062242      1            
   5988000   296.88039     -206.1771       1.2282661     -1282371.5      17754.632     -1300126.1     -45872.526     -1276464.8      12575.227      8723.2049      912.78092     -27133.848      69.312083      73.789303      43.802242      224026.14      1.2282661      0.11839273    -0.0097890218   0.010625488    0.11189259    -0.0098372492   0.010569435   -15.7363       -7.6055469      86.014532      58.789876     -26.714794     -54.099575     -18.280903     -29.944809     -8.5583638      48.227393     -4.7035964     -22.010587      1            
   5990000   296.41246      99.744745      1.2269581     -1282611        17726.649     -1300337.7     -45762.461     -1276547.4      12475.043      8635.8504      861.29597     -27134.195      69.238045      73.967549      43.790045      224264.96      1.2269581      0.11814916    -0.011645222    0.011120993    0.11167479    -0.011713558    0.011059609   -55.83238       36.973602     -11.461131      34.380751      0.37142407     20.042368     -46.489609      2.3362196     -4.4378596      69.421945     -18.979444      1.8677018      1            
   5992000   297.63374      135.00813      1.2275613     -1282365.9      17799.686     -1300165.6     -45735.666     -1276516.4      12433.801      8763.486       889.21958     -27132.64       69.223414      73.987677      43.765868      224154.75      1.2275613      0.11815639    -0.01232925     0.012302453    0.11168125    -0.012405886    0.012227392   -44.48315      -6.9316106      10.375663      64.687432      58.493648      95.800226     -16.276378      40.118789     -11.085396      54.542874      3.2617894     -8.3446379      1            
   5994000   298.12903      136.95042      1.2293871     -1282218.4      17829.306     -1300047.7     -45685.38      -1276600.1      12603.395      8732.2231      902.12059     -27133.924      69.209295      73.863153      43.783475      223821.86      1.2293871      0.11839287    -0.013358257    0.0138505      0.11189272    -0.013448281    0.013755458   -4.4309501     -24.865598     -12.332957      62.56728      -3.2788531      5.4760593      4.9313286      23.943843     -23.935999      66.189644     -5.2062397      13.862627      1            
   5996000   295.81051     -244.32258      1.2299316     -1282516.2      17690.65      -1300206.9     -45755.85      -1276453.7      12483.736      8619.9734      898.94118     -27132.831      69.171796      73.744592      43.858216      223722.77      1.2299316      0.11862063    -0.014039576    0.01473181     0.11209635    -0.014139063    0.014624351    48.967036     -26.294923      51.595844      46.201516     -15.950892      34.1661        17.090308      30.162262      0.082595315    68.438133     -13.953332      18.182783      1            
   5998000   296.67053      455.69259      1.2315356     -1282468.5      17742.082     -1300210.6     -45736.207     -1276483.2      12493.291      8629.7952      885.69886     -27135.2        69.122466      73.633333      43.898581      223431.38      1.2315356      0.11883744    -0.014151616    0.013919363    0.11229015    -0.014252705    0.013823378   -117.34455     -8.7572046     -12.417402      65.868309      23.802792      13.967843      22.884516      19.808988      44.519648      59.931971      6.6160911      9.3970417      1            
   6000000   297.77565      46.917326      1.2348905     -1282327.4      17808.173     -1300135.6     -45766.261     -1276495.7      12598.067      8637.6172      890.61944     -27133.146      69.091924      73.523115      43.864331      222824.37      1.2348905      0.11905322    -0.0142421      0.012806774    0.11248299    -0.014344492    0.012725461   -33.465109     -52.911213      72.114628      80.843799     -19.056375      32.135362      22.630917     -0.74405373     10.665324      83.567195      9.1676197      0.35624213     1            
Loop time of 118553 on 16 procs for 6000000 steps with 20064 atoms

Performance: 0.437 ns/day, 54.886 hours/ns, 50.610 timesteps/s, 1.015 Matom-step/s
98.4% CPU use with 16 MPI tasks x no OpenMP threads

MPI task timing breakdown:
Section |  min time  |  avg time  |  max time  |%varavg| %total
---------------------------------------------------------------
Pair    | 74906      | 82781      | 87934      |1251.9 | 69.83
Bond    | 18218      | 19605      | 20582      | 482.2 | 16.54
Kspace  | 6379.1     | 12304      | 21576      |3850.1 | 10.38
Neigh   | 730.07     | 730.3      | 730.47     |   0.5 |  0.62
Comm    | 1369       | 1396.1     | 1417       |  35.8 |  1.18
Output  | 2.1013     | 2.1053     | 2.1559     |   0.9 |  0.00
Modify  | 1521.9     | 1542.1     | 1566.7     |  30.9 |  1.30
Other   |            | 192        |            |       |  0.16

Nlocal:           1254 ave        1330 max        1199 min
Histogram: 3 2 1 2 1 3 1 1 1 1
Nghost:        11845.1 ave       11980 max       11748 min
Histogram: 3 2 3 1 1 1 1 2 1 1
Neighs:         648323 ave      709670 max      610574 min
Histogram: 3 2 1 4 1 1 1 2 0 1

Total # of neighbors = 10373162
Ave neighs/atom = 517.00369
Ave special neighs/atom = 5.8041268
Neighbor list builds = 22511
Dangerous builds = 0

#-------------------Wrap up-------------------
write_restart   ${myid}.restart
write_restart   shear_L10_rep_2_1_full_xld_erate_2e8_IFF-RX0_mmorse.restart
System init for write_restart ...
PPPM initialization ...
  using 12-bit tables for long-range coulomb (../kspace.cpp:342)
  G vector (1/distance) = 0.18875095
  grid = 18 24 15
  stencil order = 5
  estimated absolute RMS force accuracy = 0.018946609
  estimated relative force accuracy = 5.7057151e-05
  using double precision KISS FFT
  3d grid and FFT values/proc = 2002 432
Generated 45 of 45 mixed pair_coeff terms from sixthpower/sixthpower mixing rule
write_data      ${myid}.data
write_data      shear_L10_rep_2_1_full_xld_erate_2e8_IFF-RX0_mmorse.data
System init for write_data ...
PPPM initialization ...
  using 12-bit tables for long-range coulomb (../kspace.cpp:342)
  G vector (1/distance) = 0.18875095
  grid = 18 24 15
  stencil order = 5
  estimated absolute RMS force accuracy = 0.018946609
  estimated relative force accuracy = 5.7057151e-05
  using double precision KISS FFT
  3d grid and FFT values/proc = 2002 432
Generated 45 of 45 mixed pair_coeff terms from sixthpower/sixthpower mixing rule
Total wall time: 32:55:53
