thermo          2000 # every 1 picosecond (1000/0.5 = 2000)
restart		    2000 rst_1a_${myid}.relaxed rst_2a_${myid}.relaxed  # every 1 picosecond (1000/0.5 = 2000)
restart		    2000 rst_1a_relax_rep_1_pxld_60_IFF.relaxed rst_2a_${myid}.relaxed  
restart		    2000 rst_1a_relax_rep_1_pxld_60_IFF.relaxed rst_2a_relax_rep_1_pxld_60_IFF.relaxed  
thermo_style    custom step temp press etotal ke pe ebond eangle edihed eimp evdwl density lx ly lz vol v_sxx v_syy v_szz f_sxx_ave f_syy_ave f_szz_ave f_avd v_Time

#-----Create some velocites-------
velocity	    all create ${ptemp} 4928459 dist gaussian
velocity	    all create 300 4928459 dist gaussian

#------------Initialization----------------------
#fix            1 all nve
#fix            2 all langevin ${ptemp} ${ptemp} 100 4875321
fix             1 all nve/limit 0.1
run             20000 # 0.01ns = 10ps
PPPM initialization ...
WARNING: System is not charge neutral, net charge = -19.527200 (../kspace.cpp:325)
  using 12-bit tables for long-range coulomb (../kspace.cpp:340)
  G vector (1/distance) = 0.24222314
  grid = 36 36 36
  stencil order = 5
  estimated absolute RMS force accuracy = 0.00027642919
  estimated relative force accuracy = 8.3245828e-07
  using double precision KISS FFT
  3d grid and FFT values/proc = 10000 3888
Neighbor list info ...
  update every 1 steps, delay 0 steps, check yes
  max neighbors/atom: 5000, page size: 50000
  master list distance cutoff = 14
  ghost atom cutoff = 14
  binsize = 7, bins = 9 9 9
  1 neighbor lists, perpetual/occasional/extra = 1 0 0
  (1) pair lj/class2/coul/long, perpetual
      attributes: half, newton on
      pair build: half/bin/newton
      stencil: half/bin/3d
      bin: standard
WARNING: Inconsistent image flags (../domain.cpp:814)
Per MPI rank memory allocation (min/avg/max) = 22.80 | 22.94 | 23.09 Mbytes
Step Temp Press TotEng KinEng PotEng E_bond E_angle E_dihed E_impro E_vdwl Density Lx Ly Lz Volume v_sxx v_syy v_szz f_sxx_ave f_syy_ave f_szz_ave f_avd v_Time 
       0          300   -7456.0538    112131.39    18831.864    93299.526    42337.167    51524.969   -1602.7637    515.71956    1308.5134    1.1099116    60.480015    59.699256    59.893163    216250.97    253.16691    718.82688    1294.4602            0            0            0            0            0 
    2000    463.58901    4385.5578    85276.122    29100.817    56175.305    10711.067    47954.195   -1814.6657    550.14739   -447.64526    1.1099116    60.480015    59.699256    59.893163    216250.97   -302.19695   -496.77767   -534.12531   -440.67979   -414.24121    -445.6601    1.1099116            1 
    4000    468.34212    2916.9225    85333.301    29399.183    55934.118     10994.52    47947.861   -1754.9338    550.30744     -928.163    1.1099116    60.480015    59.699256    59.893163    216250.97   -249.02869   -280.12789   -357.51493   -387.41997   -381.88746   -395.11274    1.1099116            2 
    6000    469.73346    3250.8651    85330.315    29486.522    55843.793    11405.222    47939.363    -1997.141    536.05472   -1156.5323    1.1099116    60.480015    59.699256    59.893163    216250.97   -266.71664   -311.34244   -410.12263   -317.16744   -334.29397   -306.13628    1.1099116            3 
    8000    465.15499    2887.1639    85330.521    29199.118    56131.403    11789.183    48067.181   -2179.9973    550.76497    -1217.515    1.1099116    60.480015    59.699256    59.893163    216250.97   -287.11152   -426.57458   -163.93955    -285.8313   -294.56096   -276.56117    1.1099116            4 
   10000    468.22091    3639.3264    85330.009    29391.574    55938.435    12034.376    47861.188   -2256.8314    524.51905   -1296.2494    1.1099116    60.480015    59.699256    59.893163    216250.97   -346.70465   -403.66911   -355.89046   -230.43461   -238.98781   -235.55623    1.1099116            5 
   12000    467.52978     3154.415    85329.513     29348.19    55981.323    12268.073    48160.085   -2439.0467    525.52956   -1616.6935    1.1099116    60.480015    59.699256    59.893163    216250.97   -277.24057   -284.95708   -396.66564   -216.19239   -192.74504   -199.60882    1.1099116            6 
   14000     469.5652     1991.247     85327.18    29475.959    55851.221    12127.994    48290.827   -2392.0102    535.12189   -1772.5464    1.1099116    60.480015    59.699256    59.893163    216250.97   -197.48425   -269.95111   -137.85394   -194.04048   -194.99447   -199.18768    1.1099116            7 
   16000    470.98366    2855.9747    85362.532        29565    55797.532    12567.012    48097.505   -2719.8819    527.99037   -1682.4201    1.1099116    60.480015    59.699256    59.893163    216250.97    -325.7063    -301.2971   -241.14152   -163.71364   -157.89959     -164.144    1.1099116            8 
   18000    470.89594    1856.8616    85362.457    29559.494    55802.964    12514.463    48025.001   -2484.9751    546.59856   -1830.7911    1.1099116    60.480015    59.699256    59.893163    216250.97   -184.06269   -272.62714   -107.74968   -145.97937    -143.3597   -151.57838    1.1099116            9 
   20000    469.33722     1604.302    85362.377    29461.648    55900.728    12632.459    48162.229   -2566.7451    507.47719   -1828.0649    1.1099116    60.480015    59.699256    59.893163    216250.97   -254.75411   -111.16951   -121.74408   -147.23511   -143.64553   -149.78044    1.1099116           10 
Loop

Performance: 1.891 ns/day, 12.694 hours/ns, 43.766 timesteps/s
99.8% CPU use with 16 MPI tasks x no OpenMP threads

MPI task timing breakdown:
Section |  min time  |  avg time  |  max time  |%varavg| %total
---------------------------------------------------------------
Pair    | 283.1      | 298.38     | 315.63     |  54.3 | 65.30
Bond    | 65.133     | 67.23      | 70.34      |  19.2 | 14.71
Kspace  | 39.479     | 59.585     | 75.262     | 134.9 | 13.04
Neigh   | 24.441     | 24.454     | 24.469     |   0.2 |  5.35
Comm    | 4.9344     | 5.0802     | 5.2142     |   4.6 |  1.11
Output  | 0.23712    | 0.23714    | 0.23733    |   0.0 |  0.05
Modify  | 1.2565     | 1.3271     | 1.3882     |   3.8 |  0.29
Other   |            | 0.6787     |            |       |  0.15

Nlocal:        1316.25 ave        1354 max        1259 min
Histogram: 2 1 0 1 0 4 0 2 3 3
Nghost:        12746.8 ave       12866 max       12627 min
Histogram: 1 1 1 2 4 1 1 3 1 1
Neighs:        736728.0 ave      777009 max      672559 min
Histogram: 1 1 1 0 1 0 5 3 3 1

Total # of neighbors = 11787643
Ave neighs/atom = 559.71714
Ave special neighs/atom = 5.7450142
Neighbor list builds = 954
Dangerous builds = 0
write_data 	${myid}_initialization.data
write_data 	relax_rep_1_pxld_60_IFF_initialization.data
System init for write_data ...
PPPM initialization ...
  using 12-bit tables for long-range coulomb (../kspace.cpp:340)
  G vector (1/distance) = 0.24222314
  grid = 36 36 36
  stencil order = 5
  estimated absolute RMS force accuracy = 0.00027642919
  estimated relative force accuracy = 8.3245828e-07
  using double precision KISS FFT
  3d grid and FFT values/proc = 10000 3888
unfix           1

#------------Room temperature relaxation-------------
fix             1 all npt temp ${ptemp} ${ptemp} 100 aniso 1.0 1.0 1000 #x 1.0 1.0 100 y 1.0 1.0 100 z 1.0 1.0 100 couple none
fix             1 all npt temp 300 ${ptemp} 100 aniso 1.0 1.0 1000 
fix             1 all npt temp 300 300 100 aniso 1.0 1.0 1000 
run             4000000 # 2ns
PPPM initialization ...
  using 12-bit tables for long-range coulomb (../kspace.cpp:340)
  G vector (1/distance) = 0.24222314
  grid = 36 36 36
  stencil order = 5
  estimated absolute RMS force accuracy = 0.00027642919
  estimated relative force accuracy = 8.3245828e-07
  using double precision KISS FFT
  3d grid and FFT values/proc = 10000 3888
WARNING: Inconsistent image flags (../domain.cpp:814)
Per MPI rank memory allocation (min/avg/max) = 22.82 | 23.14 | 23.29 Mbytes
Step Temp Press TotEng KinEng PotEng E_bond E_angle E_dihed E_impro E_vdwl Density Lx Ly Lz Volume v_sxx v_syy v_szz f_sxx_ave f_syy_ave f_szz_ave f_avd v_Time 
   20000    469.33722     1604.302    85362.377    29461.648    55900.728    12632.459    48162.229   -2566.7451    507.47719   -1828.0649    1.1099116    60.480015    59.699256    59.893163    216250.97   -254.75411   -111.16951   -121.74408   -147.23511   -143.64553   -149.78044    1.1099116           10 
   22000    298.47083   -43.175963    63875.587    18735.873    45139.714    8819.5396    44134.371    -4254.559     275.8601   -2723.0369    1.1098151    60.694959    59.422162    59.964572    216269.77    0.5521731   -17.259501    29.831741   -2.1126348    10.870843    1.4345013    1.0959232           11 
   24000    298.48937   -65.794657    63752.358    18737.037    45015.321    8896.2078     43934.13   -4158.1109    284.63183   -2807.7912    1.1174768    60.524037    59.148864    59.997567    214786.97    6.4532204    63.107867   -49.561156  -0.61542921    4.8852445   -4.6131713    1.1152746           12 
   26000    301.24588    180.58416    64081.204    18910.071    45171.133    8959.2946    44231.454   -4327.0878    283.06108   -2823.5441    1.1236598     60.57181     58.86166    59.911275     213605.1   -78.917331   -54.651021    78.675282   -2.2335825   -3.2836306    6.8674417    1.1190171           13 
   28000    298.35609   -579.72241    63589.057    18728.671    44860.386    8784.8263    44271.604   -4426.6498    290.46294   -2934.3108     1.125401     60.97987    58.883079     59.39668    213274.62    54.380397     22.49967    99.341052   -2.6475445   -2.1738182    1.7406337    1.1236863           14 
   30000     300.1866   -845.31155    63752.411    18843.577    44908.834    8905.9075    43987.351   -4187.6467     273.0334   -2962.6629    1.1275006    61.224013    58.817088    59.115906    212877.45    114.73795    75.503672    66.711961   -3.0531135   0.31780392   -3.2934277    1.1260984           15 
   32000    298.39265    63.924716    63718.956    18730.966     44987.99    8847.9911    44078.198   -4160.7579    272.74303   -2889.5757    1.1290431    60.745028    58.768761    59.549572    212586.61    85.853263   -11.663274   -93.621504    5.4508285   -6.1431703  -0.55746163    1.1279678           16 
   34000    299.76477   -102.40445    63525.496    18817.098    44708.398    8831.2395    44158.077   -4323.2661    280.58474   -3049.0404    1.1356273    60.139248    58.956469    59.610279    211354.07   -61.078308    59.832032    32.374668   0.57709891    4.5024354  -0.53290849    1.1310726           17 
   36000    300.53624   -783.38718    63728.354    18865.525    44862.829    8942.3674    44157.152    -4297.517    289.44559   -3069.3433    1.1370271    60.586449    58.650324     59.40592    211093.88    96.422034    102.96606     38.74202   -3.7519196   -0.6838137    6.6974249    1.1366494           18 
   38000    298.87605   -770.00012    63504.065     18761.31    44742.754     8848.523    44119.565   -4211.7683    281.86157   -3118.4774    1.1368906    60.452747    58.712893    59.481001    211119.22    -38.81801    165.28326    107.59554    5.3858493   -2.6852516   -3.5854516    1.1377605           19 
   40000    298.26285    435.65671    63453.509    18722.818    44730.691     9057.472    44148.476   -4405.0801    300.66359   -3189.9833    1.1397328    60.481836    58.705382    59.311722    210592.75    27.551394   -125.09972   -34.880425   -5.8582477    8.7725083    4.5372459    1.1376305           20 
   42000    302.30625    -709.9429    63662.184    18976.634     44685.55    9070.3024    44017.411   -4339.6051    280.42878   -3150.9982    1.1362696     60.60289     58.83015     59.24774    211234.61    113.45402    151.20203   -48.851153    10.138141   -2.5334438   -5.1749421    1.1402891           21 
   44000    299.90498    259.74171    63303.424    18825.899    44477.525    8994.9066     44139.45    -4575.409    270.33007   -3146.2033      1.14098    60.566454     58.63294    59.237212    210362.55   -24.601539   -44.415963   -9.9374845   -7.6604271    -2.572284    4.6528156    1.1408308           22 
   46000    301.52276   -146.09796    63753.419    18927.452    44825.967    8934.5998        44147   -4322.0376    314.77928    -3043.268    1.1351541    61.133877    58.706883    58.914291    211442.18    30.468297    107.30196   -93.360127     5.152179    2.1940363   -11.898332     1.139649           23 
   48000    298.56477   -848.37684    63352.615     18741.77    44610.845    8996.1788    44049.507   -4355.7772    281.92421   -3138.0956    1.1404763    60.745556    58.402795    59.321489    210455.45    171.58733    22.995084    63.302936    4.7498395   -2.7914747    4.3319697    1.1379686           24 
   50000    302.77214    321.79595    63562.063    19005.879    44556.184    8990.7535    44131.694    -4418.295    276.72505   -3209.9169    1.1453457    60.844887    58.592041    58.782379    209560.72    -120.1495    63.063615   -40.732043   -3.5738762 -0.026475347    8.2527835    1.1415486           25 
   52000    301.11652   -59.319603    63525.994    18901.951    44624.043      9133.16     44029.86   -4463.8491    280.63902    -3167.464    1.1442631    60.992648    58.470338    58.817621    209758.98    112.30876   -33.181382   -61.095706     1.234268     2.964565   -1.3364195     1.144653           26 
   54000    298.07564   -320.85729    63253.562    18711.066    44542.495     8905.275    44060.152   -4260.0404    261.45131   -3190.5068    1.1473825    60.727797    58.507139    58.876483    209188.72   -7.2063498     10.03579    94.703153    1.3041272   -3.0447504    0.7841469    1.1468376           27 
   56000    300.58494   -161.18837    63392.277    18868.582    44523.695    9009.1997    44041.647   -4284.6233    289.79889   -3349.6252    1.1498821    60.810478    58.338843    58.837865    208733.97   -60.094667   -5.4106402    114.50254   -8.8946796    -3.842531   -3.5124102    1.1487175           28 
   58000    301.33076    66.398487    63526.748    18915.399    44611.349    9013.9866    44022.186    -4294.166    306.68992   -3198.0267    1.1475315     60.55806    58.517798    59.023087    209161.55   -30.752417    69.011464   -58.442527    9.3080387    2.9302734     3.723557    1.1459812           29 
   60000    299.31743   -443.34773    63264.508    18789.017    44475.491    8884.6911    44037.304   -4280.6011    266.91358   -3228.5478    1.1471277    60.598712    58.271479    59.253668    209235.17    93.461253    47.517457   -6.2120841   0.51870295   0.80088733  -0.31389896    1.1481975           30 
   62000    300.83833   -1008.5807    63385.345    18884.488    44500.857    8933.6232    44133.923   -4407.8222    277.40272   -3210.9977    1.1480144    60.260164    58.240347    59.572365    209073.55     24.45239    158.22096    123.90996   -8.1465083   -4.3723055   0.52524457    1.1493094           31 
   64000    298.95962    613.83421    63230.558    18766.556    44464.002    9064.9993    44143.503   -4531.3742    298.62221   -3272.4407    1.1484481    60.326054    58.458395    59.262949     208994.6   -71.657391   -24.306446   -90.626417   -3.1527439   -1.2952834    7.6496946    1.1473216           32 
   66000    298.65943   -258.00034    63023.851    18747.712    44276.139    8878.0251    44095.843   -4459.9735     270.7987   -3276.2092    1.1486711    60.563596    58.542864    58.933895    208954.04      8.28437    103.61517    -33.47389    4.6787882    3.7559082   -4.3961521    1.1469083           33 
   68000    298.59379    679.86054    63396.301    18743.592    44652.709    9241.9417    44125.999   -4566.8826    297.82675   -3220.6533    1.1525397    60.282431    58.138541    59.420412    208252.66   -147.89139   -12.276924    -46.49229   -4.6292553    1.4158223   -3.1556104    1.1510035           34 
   70000     297.5155    134.16038    63244.245    18675.904    44568.341    9062.9219    44037.664   -4361.3545    289.58028   -3238.0449    1.1499232    60.418464    58.041747    59.520623    208726.52   -33.078327   -1.3469212   -6.3561531    1.3063879   -7.7695769   0.88779512    1.1493904           35 
   72000    299.58594    54.753983    63285.819    18805.872    44479.947    9029.0714    44013.584    -4293.889    276.79965    -3309.965    1.1555926    60.277971    58.065432    59.342444     207702.5    58.247331   -30.843831   -44.047342   -1.2520447  -0.34265647    3.2447642     1.149298           36 
   74000    301.47869   -697.46112    63462.121    18924.685    44537.436    8907.4233    44147.569   -4312.7219    303.48323   -3306.8892    1.1521056    60.327473    58.107086    59.430575    208331.13    47.168631    110.93922    53.902889   -1.4936958    5.6674584    1.6324783    1.1524607           37 
   76000    300.13004    209.33236    63315.159    18840.027    44475.132    8899.9617    44238.372   -4375.4578    295.10126   -3378.2438    1.1503565    60.722061    58.199373    59.040386    208647.89     -65.0482    35.162713   -33.746317    5.2246096    -3.406364   -6.1831735    1.1522666           38 
   78000     301.0723   -167.24981    63431.267    18899.175    44532.092    9065.8111    44247.142   -4516.7868    269.06985   -3314.2604    1.1554222    60.100997    58.457919    59.126302    207733.12    43.327537   -20.824883    28.337106   -1.7071295  -0.61467484   -1.7628643    1.1516852           39 
   80000    298.32047    1007.4442    62993.029    18726.435    44266.595    8929.8005    43934.292    -4413.998    283.44062   -3250.1742    1.1562546    59.862666     58.73026    59.043898    207583.58   -173.50583   -64.274202   -68.457802    2.3015448    3.6907962   0.58846961    1.1525953           40 
   82000    302.41898   -308.34886    63245.763     18983.71    44262.052    9027.7682     43927.38   -4432.5168    294.02746   -3315.4226    1.1544442    59.639907    58.750234    59.337188    207909.11    45.695873    32.886385    15.148088   -7.5302078    2.1504574    7.1182891    1.1502773           41 
   84000    300.09267   -516.17731    63317.944    18837.681    44480.263    9136.7382    44220.371   -4570.9817    265.92241   -3339.8788    1.1488758    60.288712    58.636582    59.097448    208916.81    31.560106    37.467487    87.877406   -2.3991756   -3.2161655    -3.715647    1.1509287           42 
   86000    301.62452    -1083.986    63374.495     18933.84    44440.655    9057.0775     44197.36   -4621.8866    296.07676   -3285.7132    1.1440816    60.312656    58.724498    59.232723    209792.26    11.096315    206.78214    111.62619    1.7837058   0.55536957   -1.9138706    1.1480215           43 
   88000    295.51438     719.7508    62820.768    18550.289    44270.479    8928.1869     44162.58   -4574.5066     284.4191     -3309.32    1.1525413    60.371229    58.539895    58.926139    208252.37   -43.694993   -66.452814   -108.63844   -1.7111201    5.6853568     5.165692    1.1496116           44 
   90000     299.0618    177.41155    63070.952     18772.97    44297.982    8972.2846    44260.138     -4571.46    280.53829   -3397.7719    1.1579365    60.422773    58.420563    58.721256    207282.06    -30.49432    44.653087   -68.087443    5.0734187   -2.6484334    3.1101602    1.1538093           45 
   92000    302.36797   -52.101996    63211.564    18980.508    44231.056    9105.3356      44029.4   -4619.5699    277.90504   -3309.1957    1.1549877    60.304169    58.774235    58.632006    207811.26    59.284404   -34.140308   -9.3063916   -2.7711317    -5.058767   -3.1034803    1.1570442           46 
   94000     298.5776   -2.2494431    63004.307    18742.575    44261.731     9062.336    44044.856   -4583.7819    303.99632   -3344.1675    1.1553417    60.267435    58.555101    58.869257    207747.59    22.849251    7.5801592   -29.745636   -4.4849442    3.4394419   -2.4332349    1.1549118           47 
   96000    301.81573    74.609294    63369.297    18945.842    44423.455    9097.1411    44137.992   -4427.8615    282.56377   -3433.4619    1.1555928    60.864178    58.353684    58.480568    207702.45   -71.374307   -22.667865    71.362811    1.5917997   -8.1287741    6.4536273    1.1553281           48 
   98000     298.2737   -151.93681    63078.915    18723.499    44355.416    8906.5318    44177.292    -4445.403    271.08453   -3288.7782    1.1543458    60.675533    58.605189     58.47374    207926.84   -108.60198    62.565911    92.221057    5.4993635   -4.5240469   -6.4333967    1.1552293           49 
  100000    301.31556   -88.078222    63202.773    18914.445    44288.327    8992.7493    43995.327   -4339.0327    280.86233   -3424.7993    1.1557984    60.603535    58.582034    58.492739     207665.5   -15.536968    14.969354    27.341192   0.91457472    5.0116219    5.9252391    1.1536454           50 
  102000    298.47435     1267.545    62865.399    18736.094    44129.305    8910.6898    44050.335   -4536.4111    292.15113   -3362.3409    1.1594172    60.567977     58.73093    58.196488    207017.34   -113.58653   -94.595084   -177.12039    3.1894143    1.0555706   -3.9441453    1.1548706           51 
  104000    300.06322   -36.854359    63060.248    18835.832    44224.416    8904.2644    44116.316   -4447.9873    276.58038   -3397.9694    1.1509172    60.689902    58.945905    58.295131    208546.24    22.393224   -73.001981    61.811561     -1.56712    5.5290759   -3.0020075    1.1560225           52 
  106000    301.88022     644.2908    63273.537     18949.89    44323.647    9050.7357    44012.977   -4446.0145    277.97815   -3339.5962    1.1566156    60.702068    58.508325    58.430049    207518.78    17.560956   -156.15278   -57.256475   -4.2430173   -3.9558077   -1.9254787    1.1555559           53 
  108000     300.5079     1045.738    63192.737    18863.746    44328.992    9133.4743    44083.426   -4581.7154    268.92375   -3351.3602    1.1533604    61.039277    58.316748    58.462683    208104.48   -117.30512   -159.54529   -41.027786   -1.7013338   -3.4566575    4.8951611    1.1565029           54 
  110000    298.74456   -170.43954     63044.12    18753.056    44291.064    9049.5994    44079.129   -4456.8148    276.41023   -3434.7244    1.1564596    61.080054    58.443384    58.140828    207546.77    10.677316    90.335609   -49.203567    4.6031284   -1.5355608   -4.8274099    1.1552451           55 
  112000    301.80003    194.57595    63237.849    18944.857    44292.993    9092.5098    44083.462   -4635.1721    296.32789   -3353.2979    1.1550055    60.771881    58.686303    58.267043    207808.07    -32.47361   -57.600262    30.927647  -0.21205195    7.7942922  -0.16870175    1.1561541           56 
  114000     299.6671    663.60598     63356.07    18810.966    44545.103    9134.0672    44214.323   -4543.3087    283.26806   -3320.4732    1.1499264    60.747044    58.426568    58.808607    208725.94    -65.27192   -156.62527    20.177563   -2.8472709   -4.3944286   0.44313438    1.1556204           57 
  116000     298.7666    115.98895    63109.983    18754.439    44355.544    9004.9213    44235.509   -4533.8676    287.19921   -3405.9985    1.1579225    60.541292    58.441249    58.586261    207284.56  -0.78507168   -20.966251   -13.506419   -3.9700814   -3.4873691    3.6696342    1.1569975           58 
  118000    303.45208    410.57024    63404.839    19048.561    44356.278    9093.2521    44223.377   -4729.8073     268.6816   -3292.0197    1.1579588    60.525726    58.492956    58.547693    207278.07   -43.123244   -79.414126   -2.2657184    5.3261686    3.8703188   -8.8131206    1.1553274           59 
  120000    297.78754    396.35402    63109.977    18692.981    44416.996      9262.44      44053.2   -4603.8999    290.68467   -3365.2499    1.1558373    60.802967    57.978504    58.905789    207658.52   -52.050286   -105.55675    37.125327   -5.5204961    10.442682  -0.63620222    1.1566776           60 
  122000    300.42014   -644.31614    63170.482    18858.237    44312.245     9024.896     44090.93   -4436.8582    297.86981   -3433.3744    1.1589477    60.642676    58.076177    58.803916     207101.2   -30.942912    152.53294     74.26597     1.030844   -7.7651821   0.91636591    1.1585368           61 
  124000    296.87106   -207.65999    62914.113    18635.451    44278.662    8946.3524    44095.556   -4418.9096    288.78311   -3429.3113    1.1552516    60.459174    58.429739    58.813051    207763.79   -29.395658    8.4545651    84.064537   -5.7540048    1.2975463    2.9978995    1.1585677           62 
  126000    300.42627   -129.89605     63052.26    18858.622    44193.638    8955.6533    44240.498   -4488.7755    294.91487   -3534.3621    1.1593695    60.566728    58.473294    58.456514    207025.85    21.266116    40.142522   -21.923485    4.1095303    6.8666547   -3.5447523    1.1568239           63 
  128000    301.34173    516.53181    63267.878    18916.088     44351.79    9014.4919    44109.944   -4457.5721     287.1858   -3379.7189    1.1586906    60.598348    58.092454    58.843496    207147.15    -21.42216   -32.133588   -103.45701   -1.6663394   -1.3762504    -2.465533    1.1591448           64 
  130000    299.19095      545.595    63179.448    18781.077    44398.371    8997.8528    44175.619   -4419.2624    278.83249   -3380.4932    1.1543149    60.509468     58.40186     58.83993     207932.4    -112.4111    32.309856   -85.745991    2.0205738   -1.4743726    2.4513281    1.1574642           65 
  132000    301.70073   -97.866367    63284.119    18938.624    44345.495    9062.9812    44119.161   -4432.0622    277.82429   -3425.7834    1.1573726     60.43717     58.62556    58.530486    207383.05   -17.791074    72.744603     -25.2046     1.745099   -5.0329371    -0.109659    1.1585382           66 
  134000    297.67483    -305.6653    63156.662    18685.906    44470.756    9072.5383    44162.141   -4462.2831    298.45938   -3338.4535    1.1548015    60.329795    58.520906    58.870297    207844.78    140.22009   -30.471487   -16.833993   -2.0633773    2.9154287   -6.9811759    1.1584499           67 
  136000    300.23511    45.048434    63196.065    18846.622    44349.442    8909.4988    44190.703   -4325.7991    288.65306   -3445.6955    1.1568622    60.605803    58.313932    58.705431    207474.54   -48.497007   -5.7915579    40.594967   -1.0714974    2.0442306    4.3681585    1.1544464           68 
  138000     298.8661     230.8335    62955.219    18760.686    44194.533    8964.0509    44090.006   -4403.8127    277.49953   -3472.8064    1.1577158    60.301183    58.451527    58.819699    207321.57   -142.47306   -42.803352     115.1088  -0.36097018     1.127468    -1.137856    1.1569429           69 
  140000    299.65786    767.66901    62977.009    18810.386    44166.622    9079.3108    44076.697   -4597.9467     299.2348   -3447.0124    1.1554885    60.571418     58.24981    58.873326     207721.2   -115.83096   -87.503322   -30.017906   0.75271893  -0.17206228 0.0069397196    1.1565227           70 
  142000    301.35275    308.78861    63337.938     18916.78    44421.158    9138.4088    44174.832    -4550.335    283.69863   -3353.1142    1.1549307    60.341464    58.242239    59.133913    207821.52   -61.973974    97.830605   -129.72065     -2.64176   -1.1996263    4.4722974    1.1559985           71 
  144000    301.94085    564.82722    63019.867    18953.697     44066.17    8942.1362    43908.647   -4393.6928    287.02049   -3440.8184    1.1578546    60.532083    58.148917    58.893202    207296.71   -101.18656   -53.515881   -16.990914   -1.7866808   -7.0028014   -4.9539828    1.1586391           72 
  146000    298.15624    742.11932    62912.128    18716.125    44196.003    9079.7029     44025.14   -4551.7706    290.79851   -3409.4243    1.1568545    60.952017    58.097727    58.589593    207475.92   -63.848188   -112.68579   -49.051738    4.0204537    6.4894602   -2.7780444    1.1565477           73 
  148000    298.27965   -467.61085    63167.537    18723.872    44443.665    9093.0473     44147.29   -4408.3476     305.9487   -3431.0178    1.1559975    60.678506    57.805431    59.195138    207629.74    9.9427733    22.282854    109.91638    6.0128069   -3.2910284    1.2582652    1.1567976           74 
  150000    302.43063   -121.96892    63146.521    18984.441     44162.08    9040.5744    44146.379   -4666.0535    277.13258   -3389.8192    1.1568224    60.250989    58.230173    59.138118    207481.68   -59.875418    60.941336    36.009585   0.30550614   -7.0448066    0.3107285    1.1596935           75 
  152000    298.38924    817.97587    62833.273    18730.752    44102.521    8991.2213    43953.787   -4465.3787    298.64008   -3448.1136    1.1617203    60.396071    58.029369    58.950617    206606.93   -127.91326   -70.605036   -50.125918   -4.8814439    5.5643091  -0.50054329    1.1580382           76 
  154000    301.64846    -740.7825    63137.279    18935.342    44201.937    9124.3753    43950.419   -4474.8786    279.47826   -3453.1799    1.1558157    60.371164     58.24549     59.05627     207662.4    83.373393    18.586854    123.21911    4.5216661   -3.5618095    4.2900675    1.1561631           77 
  156000    301.34648    410.93092    63273.419    18916.386    44357.033    9059.4046    44172.649   -4505.4249     283.2478   -3416.2409    1.1538976    60.320964    58.428914    59.017811    208007.59   -46.821759   -57.789338   -20.301629  -0.61526518  0.075881393   -4.0940763    1.1594104           78 
  158000    299.36924    370.96132    63070.536    18792.269    44278.267    9067.3303    44035.124   -4411.2326      307.539   -3488.8198    1.1599207    60.188316    58.039591     59.23544    206927.47   -8.4560203   -45.754313   -58.552634    -3.912874   -1.0772196   -3.0705739    1.1610791           79 
  160000    296.20139   -995.57458    62881.509    18593.414    44288.096    9021.0978    44130.905   -4462.3927    282.69289   -3441.6525    1.1590152    60.302992     58.17615    59.030097    207089.14    76.120032     178.4427    48.067055     1.016704   0.88888946    5.9677064    1.1582902           80 
  162000    301.39748   -280.68853    63199.013    18919.587    44279.425    9093.2347    43978.462   -4357.1164    307.08386   -3483.3194    1.1587416    60.300446    58.213539      59.0086    207138.03   -9.5407065    24.047826    70.815175    3.3647817   -1.0002616    1.2743578    1.1619177           81 
  164000    297.01334     124.2412    62924.723    18644.382    44280.341    9213.6668    44035.983   -4536.1085     301.7222   -3460.2346    1.1617654    60.408506    57.872458    59.095989    206598.91    58.798932   -16.484005   -80.081146   -2.5540058    6.2006532   -2.9357282    1.1607438           82 
  166000    301.17579   -63.004489    63326.851    18905.671     44421.18    9190.4543     44081.07    -4496.794    300.06604   -3393.7158    1.1604366    60.297397    57.937323    59.206318    206835.48   -76.231831    25.617125    69.766496   0.31465068   -4.9233689     8.915405    1.1604433           83 
  168000    299.26116    40.240242    63005.265    18785.484    44219.781     9124.383    44002.462   -4492.5953    292.02778   -3464.5259    1.1577532    60.693215    58.218777    58.671508    207314.88   -44.850011     12.06419    20.553793   -2.3189261    3.4917727   -8.6345607    1.1586272           84 
  170000    298.88999    1118.5919    62862.339    18762.185    44100.154     9098.786    44078.598   -4622.6876    291.75166   -3503.4763    1.1582243    60.515353    58.133889    58.905905    207230.55   -73.466642   -50.273616   -216.28371  0.025844718 -0.00030138672   -3.0238605    1.1608256           85 
  172000    301.12463    440.68459    63147.904     18902.46    44245.444    9167.4299    44061.623    -4624.458    276.45291   -3371.3013     1.154097     60.67256    57.910808    59.190527    207971.65   -12.792372    -55.68938   -65.475346   0.44340711  -0.47287708    1.1884791    1.1598193           86 
  174000    298.42734    159.34509    62890.648    18733.143    44157.505    8925.6923    44259.512   -4557.8841    289.24319   -3504.7842    1.1617124    60.493435    57.983111     58.90309    206608.33    4.6996662    38.423361   -91.559949    -3.966818   -5.5614244    4.3119369    1.1576516           87 
  176000    301.55905    403.18401     63118.87     18929.73     44189.14    9030.7461    44201.603   -4529.5931    277.26942   -3511.7277    1.1634793    60.739888    57.692945    58.869602    206294.57   -12.105085   -4.2355046   -106.21727     6.497103    6.6523838      -4.4953    1.1606067           88 
  178000    298.80565    13.025288    62998.611    18756.891     44241.72    9144.2095    44208.511    -4538.572    262.82446   -3574.9176    1.1584997    60.474121    57.612528    59.465357    207181.29   -16.459842    -56.94033     69.44081   0.97820817   -14.717147    9.0511129    1.1622579           89 
  180000    299.63125    879.86823    63225.288    18808.716    44416.571    9217.0112    44258.171   -4733.4109    276.28802   -3371.0356    1.1560462    60.508419    58.027791    59.131574       207621    -4.433772   -138.19675   -124.82742   -6.4711049    -5.821891   -1.4312793    1.1598895           90 
  182000    301.93934   -466.89581    63265.807    18953.602    44312.205    9047.9649    44048.559   -4373.5513    293.83882   -3463.5818    1.1584354    60.528286    57.757172    59.266647     207192.8    1.1468373     51.21869    89.559127  -0.96627341   -1.4755493  0.041678762    1.1585398           91 
  184000    296.32581    387.24711    62827.641    18601.224    44226.417    9145.6448    43999.901   -4459.2315    288.18044   -3500.4059    1.1640504    60.282631    57.954679    59.019291    206193.37   -122.79705    19.537478   -14.453866     3.127225  0.084025678   0.40370319    1.1605688           92 
  186000    298.24643    512.75309     62968.42    18721.787    44246.633    9133.8023    44020.343   -4472.8448    292.64921   -3472.2216    1.1623447    60.187233    58.154253    58.996417    206495.93   -4.9600208   -91.928764   -58.975336   -3.8740874    5.4017091   -1.2101633    1.1619744           93 
  188000    300.40971   -106.88219     63161.47    18857.582    44303.887    9088.1501    44052.156   -4448.9898     314.3769   -3476.5002    1.1644974    59.990497    58.021696    59.215452    206114.21    1.6165502    5.0802173    25.792747    5.5352882      -6.1382    1.2991733    1.1607512           94 
  190000    299.21448    778.24572    63104.966    18782.554    44322.412    9156.4417    44174.693   -4619.9328    286.40464   -3443.5975    1.1617878    60.067385    58.081315    59.216738    206594.93   -125.84128   -35.947172   -74.778786   -7.2053945    2.2866371    1.2430538    1.1621593           95 
  192000    302.14845   -77.959444    63076.493    18966.728    44109.765    9057.9325    44000.038   -4549.0662    290.26677   -3440.2454    1.1597317    60.521787    57.861835     59.09966     206961.2   -74.966131     113.4547   -14.790851      8.50126    8.4927251    2.1093095    1.1586192           96 
  194000    297.67686   -436.35273    62955.397    18686.034    44269.363    9117.5336    44100.031   -4494.3459    288.22103   -3485.9194    1.1598269    60.316312    57.994503    59.160478    206944.21    77.952154    64.248725   -9.5605577    1.1160296   -8.4055946  -0.28100428    1.1614826           97 
  196000    299.75551    -412.5947    63113.947    18816.516    44297.431    9084.2408     44143.17   -4454.3107    293.59621   -3521.7102    1.1593857    60.188072    58.304276    58.993977    207022.96    23.155123    114.27057   -12.007213  -0.49803734    2.1075802   -1.0201508    1.1596761           98 
  198000    299.50479    397.16494    62957.352    18800.778    44156.574    8961.5665    44121.156   -4589.4337    292.64063   -3390.6466    1.1572146    60.023839    58.478512    59.089792    207411.36    10.656524   -68.282518   -63.102219    1.6755213  -0.32737172    1.3495748    1.1590824           99 
  200000     298.1112   -153.33809    63149.621    18713.298    44436.322    9167.8827    44035.536   -4473.8385    300.41595   -3364.8526    1.1549883    60.089044     58.25949    59.361776    207811.16    28.206951    68.104168   -49.700173   -13.226851  -0.97586267    2.2270508    1.1610907          100 
  202000    301.39538    921.98697    63068.903    18919.455    44149.448    9158.4657    43924.061   -4559.4385    294.71889   -3417.2258    1.1570823    60.441941     58.09191    59.078323    207435.09   -83.143026   -154.71421   -42.403752     1.801748   -1.0650604   -1.4320987    1.1590493          101 
  204000    300.37269   -879.50411    63245.814    18855.258    44390.555     9145.479    44056.135   -4396.1587    298.21155   -3420.8176    1.1563309    60.274903    58.184873    59.185824    207569.87    74.818817    123.02153    69.506915    3.0734511   -3.9102266     1.013738     1.159954          102 
  206000    299.05883   -537.55782    62952.794    18772.784     44180.01    9015.3759    44057.774   -4437.0915    286.94685   -3501.5721    1.1596635    59.943097     58.26299     59.26285    206973.37    91.642997    3.9645281    67.796614   -7.1593181    3.4108739   -1.3164247    1.1598897          103 
  208000    301.52541   -279.75065    63029.207    18927.618    44101.589    9008.4443    44074.772   -4521.1104    304.23899   -3536.6195    1.1611502    59.998283    58.258648    59.136937    206708.36    19.764446    60.065722    5.2070352    3.5461727   -6.5766791    2.1345275     1.162481          104 
  210000    301.47929     288.1937    63106.116    18924.723    44181.393    9062.9041    44119.407   -4615.7485    294.57461   -3412.5175    1.1608937    59.875025     58.38815    59.140308    206754.04   -95.298322     87.25749   -79.562847  0.015929987    5.6298812   -1.7628654    1.1588927          105 
  212000    299.39701    515.63572    63093.118    18794.012    44299.106    9152.8089    44060.249    -4604.972    295.11273   -3329.9716    1.1599068    60.319957    57.865169    59.285039    206929.95   -46.563334   -16.157732   -94.019301   -2.1641752    1.8602152    4.0989273    1.1604667          106 
  214000    299.78726   -0.6297812    63018.419    18818.509    44199.909    9099.2797    44110.775   -4504.9059    283.07134   -3500.9594    1.1572442    60.117609    58.287249    59.189708    207406.07   -13.558984   -14.291879      28.0423    9.6967597   -10.728459   -0.8425894    1.1591027          107 
  216000    301.99522   -144.36254    63145.873    18957.109    44188.764    9027.2692    44116.096   -4536.2304    281.43964   -3475.1128     1.163193    59.982531    58.230858    59.076762    206345.34    90.971059     -14.3296   -32.758856   -5.0555197    4.5729901   -1.1989643     1.159858          108 
  218000    298.74146   -195.82991    62940.858    18752.861    44187.996    9067.0982    44115.169   -4531.2086    274.06583   -3477.1116      1.15802    60.430928    58.069448    59.064076    207267.11   -15.137092    81.985457   -7.3209692    0.1149083   -1.2782746   0.37211043    1.1576352          109 
  220000    298.54594   -170.64782    62925.037    18740.588    44184.449    9127.0955     43992.55    -4523.841    280.72125   -3447.5005    1.1636343    59.957522    58.288357    59.020713    206267.09    -69.48206   -7.1516024    128.50633   0.48119119   -4.0151472   -2.0063081    1.1602852          110 
  222000    303.56682    1151.5518    63303.182    19055.763    44247.419    9103.6582    44015.427   -4509.6878    291.77008   -3404.1648    1.1568283    60.147157    58.212102    59.258295    207480.62   -11.703478   -193.59933   -144.74016   -3.9831148    11.870081    5.8661759    1.1562091          111 
  224000    298.13048   -68.156796    63002.736    18714.509    44288.228    9205.1029    44175.591   -4736.7106    295.09207   -3358.2524    1.1596313    60.349659    58.099628     59.03076    206979.12    1.6872739    73.120124   -54.089436    1.4742634    -4.998871   -2.7077968    1.1586285          112 
  226000    300.79334   -171.04593    63281.094    18881.664     44399.43    9181.8198     44119.28   -4495.0496    299.95466    -3421.407    1.1576521    59.989003    58.362594     59.21915    207332.98   -11.739445   -31.956055    95.689187    0.8959903   -1.0356484   0.33052097    1.1612507          113 
  228000    299.27896    646.30202    62856.006    18786.602    44069.405    9051.8584    44100.763   -4575.7324    277.41248   -3492.8626    1.1655857    60.006515    58.309649    58.852295    205921.76   -98.950979   0.21319387   -97.721871    -4.283642  -0.33338516    5.0667313    1.1589719          114 
  230000    300.46599   -614.06681    62995.724    18861.115    44134.608    9084.0468    44046.773   -4471.5409    293.31939   -3561.3003    1.1606805    60.289858    58.425813    58.706304    206792.01    71.006924    60.295829    55.358205    4.5606018    1.6220045    -4.685918    1.1617714          115 
  232000    303.09898    1253.2487    63212.996    19026.395    44186.601     9131.842    44053.292   -4652.3505    297.44592   -3407.9724     1.156759    60.136593    58.341841    59.140451    207493.06   -103.05109    -114.9204   -162.98478    2.1521089     1.389701    5.2684998    1.1575637          116 
  234000    301.30793   -546.19896     63040.92    18913.966    44126.954     9063.104    43996.401   -4456.4001    289.64491    -3517.561    1.1589094     60.04016    58.067634    59.404725    207108.04    37.610931    80.388843    48.031056   -4.5357584     1.833251   -1.2910579    1.1609713          117 
  236000    297.44278   -19.921692    62703.359     18671.34     44032.02    8964.7791    44076.751   -4512.1401    292.45832   -3527.5377    1.1655976    60.035078    57.946623    59.192217    205919.66     48.80623   -30.864267   -11.886266   -4.7109333   -7.8617152    3.9331702    1.1624917          118 
  238000    302.08315     29.71126     62998.84    18962.629     44036.21    9028.0092    44140.802   -4606.5873    269.28546   -3509.5862      1.16417    60.131025    58.465414    58.645192    206172.17     9.119404   -8.1144172   -10.036467    3.7325912   -4.0267039   -1.0150057    1.1662165          119 
  240000    299.64702    148.17133    62855.628    18809.706    44045.922    8989.8279    44038.239   -4562.6213    272.18877    -3422.444    1.1623097    60.100884    58.524761    58.708917    206502.15    38.565054    51.066999   -134.67243  -0.25117055    2.4830976   -5.5732512    1.1616632          120 
  242000    300.13579    38.118149    63095.438    18840.387    44255.051    9000.5603    44079.714   -4391.8871    296.04996   -3423.6926    1.1590998    60.262565    58.154001    59.087878    207074.02   -48.565215   -39.927355    76.905605  -0.27010399    3.2479491    7.2473289    1.1588404          121 
  244000    297.88417    318.70217    63004.077    18699.047     44305.03    8963.2314    44207.441   -4514.9188    295.26579   -3429.1676    1.1598106    60.339169    58.272654    58.856614    206947.12   -37.880171   -18.865137   -40.132185    1.8943175   -3.1198219  -0.40990977    1.1595587          122 
  246000     300.6573    126.54318    63058.414    18873.124     44185.29    8959.8919    44153.734   -4470.3593    307.72659   -3511.4721    1.1591342    59.951258    58.355912    59.187445    207067.89   -51.243931   -26.818831      39.5968   -5.8410931  -0.26505486  -0.35668202    1.1633067          123 
  248000    301.51792   -15.056246    63218.158    18927.148     44291.01    9116.5551    44095.348   -4516.2644    301.31055   -3427.8278    1.1608146    60.337026    58.362347    58.717417    206768.13    27.890021    -24.35909    1.0457911   0.17131246   -2.8952371  -0.77634082    1.1588848          124 
  250000    301.46047   -227.84718    63086.369    18923.541    44162.828    9145.5814    44204.485   -4741.4307    285.38101   -3448.6866    1.1590971    60.603206    58.345019    58.563528     207074.5   -40.115628   -6.3034099    115.67888     6.795325    7.0864349   -11.503542    1.1605232          125 
  252000     299.2897    1573.8107    62863.867    18787.276    44076.591    9086.2581    44013.856   -4603.7243    271.90454   -3398.6388    1.1647507    60.318764    58.079664    58.821617    206069.39   -98.227102   -120.09259   -260.07943    2.4653294     1.335055  -0.87345676    1.1631334          126 
  254000    297.61495   -246.19939    63063.483    18682.147    44381.336     9103.484    44214.093    -4498.118    297.62646   -3462.0265    1.1601503    60.392071    58.335669    58.724333    206886.52    16.681279    40.306351     17.85083    1.6461834   -5.7465369    1.9666163     1.161672          127 
  256000    301.77329   -509.83461    63248.315    18943.178    44305.137    9046.3327    44283.268   -4536.7318    288.06158   -3506.6525    1.1569541    60.552433    58.426992    58.638818    207458.07    133.48192    17.853563    3.6414898   -2.2949966    4.4649491   -1.3671542    1.1604174          128 
  258000    302.47788   -401.17488     63057.19    18987.407    44069.783     9029.649    44111.814   -4675.5925    270.09175   -3405.5004    1.1626855    60.242589    58.120472    58.959182    206435.42    13.900843    22.068873    85.977419    3.4741128   -2.5370791   -2.7837909     1.163269          129 
  260000    301.62066   -1119.9422    62975.249    18933.597    44041.652    8963.1627    44118.661   -4620.2238    272.90183   -3437.2774    1.1594905    60.035689    58.592774    58.847188    207004.26    168.41693    76.027996    95.989518   -1.1301636   -3.2058961    4.3338068    1.1628205          130 
  262000    297.63641   -485.84821    62928.314    18683.495    44244.819    9015.8785    44084.002    -4461.984    274.88183   -3404.9536    1.1608297    60.042926    58.452383    58.913371    206765.44    101.46137    55.493937   -9.2695942   -2.2363404    3.7809252   -3.8760991    1.1588935          131 
  264000    301.58191    802.04169      63206.5    18931.165    44275.335    9011.2423    44176.749   -4573.9586    302.40053    -3385.343    1.1627743    60.374781    57.884753    59.065148    206419.65   -67.611664   -150.52441    -25.66455    2.0062416   -2.2971684    5.8238664    1.1591578          132 
  266000    297.33374   -207.68492    62908.541    18664.495    44244.046    9002.8627    44097.738   -4518.6814    274.02927   -3370.7243    1.1582804     60.33271    58.394685    58.817504    207220.51   -38.560072     34.91816    66.772936   -1.6036539   -5.0721087   -2.4366812    1.1618389          133 
  268000    298.85633    290.46687    62638.745    18760.072    43878.673    8918.9268    44025.064   -4654.1445    295.92247   -3440.1679    1.1619928    60.194061    58.611256    58.547501    206558.48   -27.973024   -100.10687    39.785224  -0.31642993   -3.2698259   0.22637454    1.1618933          134 
  270000    304.25031    739.32011    63159.775    19098.668    44061.108    8927.8542    44164.101   -4580.0865    268.10145   -3432.7913    1.1663089    60.312039    58.549915    58.277726    205794.08   -90.328922   -100.47419   -33.931717   -3.0545079     5.979901   -2.3184914    1.1637598          135 
  272000    299.40747   -174.68816    63018.605    18794.669    44223.936    9068.2101    44120.987   -4493.1131    256.57028   -3454.3033    1.1637723     60.50893    58.412021    58.352132    206242.63    77.089824   -67.798654    43.809664    2.0843564   -2.6936211      3.55568    1.1614268          136 
  274000    299.60427    122.43331    62701.177    18807.022    43894.155    8916.2755    44183.924    -4604.462     271.3624   -3577.3778    1.1640077    60.199228    58.771088    58.282199    206200.92    -56.48654    20.383039   -1.1131649    6.7921533   0.84187121   0.84404455    1.1620861          137 
  276000    300.27627   -575.02377    63039.409    18849.206    44190.203    9027.5007    44161.711   -4480.7902    302.04864   -3569.8152    1.1637523     59.84886    58.738967     58.66833    206246.18    -52.42984    17.982808    209.23988   -8.8722807    8.4760114   -6.3228444    1.1644795          138 
  278000    299.91955   -410.87905    62888.268    18826.814    44061.455     8937.516    44108.261   -4497.3027     298.6818   -3482.5134    1.1660015    59.931899    58.675784    58.536994    205848.34   -35.033767    21.664978    138.26575   -0.1996002   -2.1845269    3.4242478     1.165909          139 
  280000    296.47309     1058.942    62790.017    18610.469    44179.548    9171.4678    44261.823   -4785.3931     262.6926   -3454.1611    1.1671884    60.268586    58.493107    58.332392       205639   -62.876895   -166.14865   -92.866353    7.3937207   -2.3306792   -4.4199895    1.1631508          140 
  282000    300.89306    134.81229    62883.634    18887.924     43995.71    9080.3833    44126.162   -4655.4968    277.51136   -3543.4328    1.1657775    60.180163    58.600935    58.381183    205887.89   -35.421206   -43.615307    38.056946   -6.0012892   0.75677755  0.078812514    1.1638923          141 
  284000    300.90175    278.30016     63056.44    18888.469    44167.971     9086.102    44162.206   -4575.7639    283.22568   -3518.8882    1.1649211    60.383296    58.497766    58.330249    206039.23    66.118825   -77.185792   -73.529324    3.1486878    1.4215256    -4.737185    1.1642755          142 
  286000    297.96776     356.2204    62778.966    18704.294    44074.672    9101.5435    44119.899   -4653.5994     271.8801   -3492.4187    1.1643257    60.033945    58.413958    58.783906     206144.6    70.873976   -124.45092   -54.705154    1.9010158   -2.2541091    8.1310656    1.1654905          143 
  288000    299.87733    407.73906    62704.754    18824.164    43880.591    8966.1303    44115.121   -4666.5367    277.24387   -3518.2868    1.1637403    60.300341    58.526253    58.441305    206248.31   -61.280976   -4.9845718   -57.676933   -4.6863064   0.56183025   -2.4858247    1.1637358          144 
  290000     301.8873   -146.45485    62979.255    18950.335     44028.92    9027.7171    44051.877   -4574.8436    277.21236   -3467.1541    1.1626784    60.684648    58.375803    58.274044    206436.68     39.55099   -45.597079    50.564703    6.2612369   -3.8109151   -5.7026126    1.1634186          145 
  292000    300.17482     602.7633    63170.893    18842.838    44328.055    9336.2895    43954.596   -4575.7734    290.56706   -3400.8173    1.1631153    60.665344    58.172272    58.474563    206359.12   -65.342329   -7.7456901   -110.13695    5.9909323   -7.3872067    1.5812033    1.1632405          146 
  294000    301.83866   -410.40508    62936.472    18947.282    43989.191    8944.3712    43980.336   -4487.8062    267.51768   -3425.0596    1.1674128    60.221413    58.624857    58.235697    205599.48    28.651093   -5.7924392    101.89423   -2.4980932    4.1554805    2.0450965    1.1648857          147 
  296000    301.36869    185.42697    63050.793     18917.78    44133.013    9112.6122    44127.919    -4639.272    280.82164   -3454.8463    1.1617122    60.616471    58.434404    58.329552    206608.37   -7.8244478   -7.4215355   -41.119179   -2.7103857   0.84648045   -2.6325403    1.1657267          148 
  298000     299.4399   -37.044853    62822.305    18796.705      44025.6     8990.806    44050.383   -4537.9355    301.61992   -3508.8512    1.1641432    60.703117    58.117642    58.441465    206176.93     4.804172     -40.2199    46.676438    5.4850987    1.7806214    2.7365264    1.1606685          149 
  300000    301.43151    81.441106    63153.073    18921.724    44231.349      9083.35     44049.22   -4482.4941    297.67503   -3417.7835    1.1588049    60.420666    58.744397     58.35582    207126.72    31.255031    11.624808     -67.6359    3.1969053   -1.9501406   0.49987166    1.1604097          150 
  302000    303.84453   -53.260367    63032.767    19073.196    43959.571    8967.7977    44083.288   -4587.5123    281.13792   -3484.8575    1.1602379    60.159452    58.394459    58.887608    206870.91     45.81778    -22.01441   -7.6135495   -4.3259266    6.4293028   -8.6675102    1.1612982          151 
  304000    301.31062    377.17163    63074.184    18914.135    44160.049    9084.3198    44082.316   -4495.2147    283.89866   -3497.3519    1.1633088    60.276911    58.360449    58.651867    206324.81   -58.077957    29.331429   -85.904217   0.63990108 -0.050176011    8.9760211    1.1617242          152 
  306000    301.22156   -656.22691      62857.6    18908.545    43949.055    9014.9871    43991.997   -4522.8528    274.79102   -3521.5792    1.1643904     60.34678    58.409554    58.480333    206133.15    8.4282968    38.884611    152.16367    4.1476867    1.2813087   -1.2547191    1.1644063          153 
  308000    297.92617    145.41942     62878.42    18701.683    44176.737    9064.9391    44210.062   -4631.8476     290.3826   -3488.7054    1.1597997     60.59619    58.298204    58.581834    206949.06   -55.144626    20.629028   -9.6882709   -6.1888746    3.6339501   -1.0995054    1.1642744          154 
  310000    300.03141    505.44266    62767.125    18833.836     43933.29    8945.9173    44181.666   -4717.9802    280.34302   -3465.5914    1.1645953    60.564109    58.256718    58.413074    206096.88    57.982803   -109.78355   -101.84119    1.7444243   -2.3937547   0.78520929    1.1637678          155 
  312000    302.62556   -391.53909    62940.151    18996.677    43943.474    9080.1924    43955.294   -4547.1267    297.68887    -3573.068     1.162587    60.657479     58.30181    58.378721    206452.89     68.59909    67.738047   -17.319043    3.5137878    1.9439837  -0.15155882    1.1672592          156 
  314000    300.18707    482.95744    63109.133    18843.606    44265.527     9119.265     44133.57   -4579.5793    300.85588   -3456.0374    1.1646243    60.515925    58.239713    58.475199    206091.75   -48.991119    12.501317   -110.31719    2.3905057  -0.05490072   -2.7581852     1.164416          157 
  316000    300.89236   -178.30348    63022.007     18887.88    44134.127    9023.4735    44216.112   -4636.1184    296.97663   -3485.0665     1.162264    60.520151    57.884739    58.949154    206510.27   -53.423413    115.45698   -7.8337663   -7.8097878   -3.6387378     1.748988    1.1663007          158 
  318000    300.43967    931.61775    62889.265    18859.463    44029.801    9185.7501    43915.373   -4567.9718    296.69624   -3504.7249    1.1628301    60.597572     58.21009    58.516277    206409.74   -156.09019   -157.32997    30.231658   -1.2743487   -7.4292697   0.09540972    1.1650196          159 
  320000    300.22917    16.464407    62849.614    18846.249    44003.365     8949.559    44041.297   -4485.6145    298.36502   -3522.7003    1.1648569    60.385337    58.362787      58.4664    206050.59   -25.012311  -0.96977524    20.977318    2.9483052    2.9953455   0.41734609    1.1652003          160 
  322000    296.85625    -175.6213    62660.959    18634.521    44026.437    9020.7978    44041.964    -4557.025    275.92541   -3494.2095    1.1607447     60.77823    58.121886    58.535858    206780.57    18.463946    85.316658   -50.396121   0.18180085   -2.1017761     -1.32613    1.1655959          161 
  324000    300.86885    178.61243    63021.016    18886.404    44134.612     9068.891    44182.955   -4557.1471     305.1173   -3614.4488    1.1682146    60.328278    57.906059     58.81375    205458.36     24.24461   -32.940975   -45.597346   -3.4021064    3.1403575   -3.9831324    1.1657309          162 
  326000    299.42212    242.56198    62761.354    18795.588    43965.765    9023.8435    44103.714   -4679.1192     291.7906   -3483.3196    1.1663555    60.336941    57.796434    59.010759    205785.86    22.898184   -93.795874   -2.8350884   -1.9322716   -10.170879    8.7299745    1.1677921          163 
  328000    300.34531   -726.52466    63149.132     18853.54    44295.592    9175.7152    44164.372   -4563.2676    294.66075   -3505.0346     1.165476    60.412139    58.139681    58.633559    205941.15    72.115292    92.364664    56.365377   -3.1579504    2.2171388      2.66005    1.1649758          164 
  330000    298.32184    602.06347    62758.131    18726.521     44031.61    9105.3886     44224.68   -4807.0041    290.03696   -3479.3522    1.1689081    60.524856    57.955589    58.537883    205336.47   -148.37679    -39.47833    4.8428767     6.170768  -0.17264534    4.8010729     1.163388          165 
  332000    300.86577    240.72299    62868.242    18886.211    43982.032    8961.1369    44138.353   -4624.7072    300.86673   -3513.5742    1.1670944    60.860779    58.006487    58.254088    205655.57   -101.60626   -80.442448    108.87493   -2.1775801    2.8357806   -2.5165505    1.1668324          166 
  334000    300.03425   -258.87597    62770.351    18834.014    43936.337     8954.653    44078.162    -4569.129     294.2457   -3539.1386    1.1667279    60.653494    57.825751    58.654288    205720.17   -14.399987    24.652251     68.43956    3.1825439    2.4216923   -4.5355219    1.1657723          167 
  336000    299.39306   -338.04641    62813.883    18793.764    44020.119    9045.3662    44192.835   -4605.1413    298.49599   -3605.9741    1.1694848    60.836057    57.752175    58.414744    205235.22    161.67607   -62.022989    3.1045797   -9.2832384   -3.6407839    12.594456    1.1681748          168 
  338000    302.93685    245.14919    63028.893    19016.218    44012.675    9069.6658    44129.787   -4608.4986     273.5888   -3587.3807    1.1640425    60.739446    57.905468    58.625592    206194.77    13.091134   -50.257816   -37.352543    8.5203317   -2.1713838   -10.035215    1.1675924          169 
  340000    302.28694   -896.04549    62952.148    18975.422    43976.726    8894.3761    44203.051   -4528.2394    284.74099    -3571.562    1.1613811    60.537096    57.970425    58.890284    206667.27    101.47975    146.91276    23.982914   -4.2717342  -0.39806827    6.2719409    1.1646323          170 
  342000     300.9353     -35.9507    63076.065    18890.575     44185.49     9167.161    44223.732   -4694.6986    272.84859   -3505.3451    1.1626247     60.86757    57.632764    58.850684    206446.22   -20.492155    43.099813   -11.679544   -2.4324521   -1.8767355   -8.6376478    1.1657032          171 
  344000    299.04892   -123.47296    62719.443    18772.161    43947.282    8958.4999        44070    -4510.856    282.15476    -3533.881    1.1677505     60.65146    57.909972    58.519659    205540.02    62.891936    -39.14374    13.784497    3.8312796   0.40324703     5.048428    1.1652307          172 
  346000    299.77793    258.84057    62768.163    18817.923    43950.239    9142.1296    44047.197   -4660.9962    284.20723   -3588.2016    1.1699687    60.532379    57.978374    58.454564    205150.32   -2.6842038   -45.751479   -30.245378   -5.0412467    -1.073434  -0.40100275    1.1664929          173 
  348000    299.15372    163.98985    62705.099     18778.74    43926.359     8972.196    43989.952   -4522.6337    279.34403   -3515.0723    1.1708606    60.564138    58.032992    58.324465    204994.06   -70.786252     22.95994   -2.0225027     4.697346    6.1324893   -4.8270175    1.1664506          174 
  350000    298.55149    96.680116    62750.348    18740.937    44009.412     9135.646    44209.398   -4707.5855    274.25152   -3624.0443    1.1650684    60.939978    57.706485    58.582528    206013.19    1.2272474   -27.025967   -3.5896185   -7.6967317   0.27691569   -1.8959261    1.1677596          175 
  352000    297.44858   -908.44659    62734.009    18671.703    44062.305    9078.6476    44164.615   -4537.9198    270.51989   -3630.4721    1.1666525    60.832126    57.598913     58.71616    205733.46    147.05878    62.273739    66.812528    9.2284503   -8.6902426  -0.67721384    1.1672745          176 
  354000    302.69882   -192.64146    62846.045    19001.276    43844.769    8903.2075    44084.199   -4576.5256    263.19015   -3537.8187    1.1703719    60.665342    57.909166    58.376034    205079.64   -52.814129    111.63871   -0.2663963   -1.0315717    1.6715514    5.9747978    1.1669032          177 
  356000    300.58763    414.07606    62902.767    18868.751    44034.015    9136.1874    44117.685   -4571.7123     297.7661   -3635.6295    1.1708955    60.601825    58.014369    58.305165    204987.94   -70.326978    100.01145   -155.55324  -0.19955043   0.34307802    1.5157701    1.1689289          178 
  358000    298.05621    120.59459    62797.544    18709.847    44087.697    8997.7491    44188.839   -4559.1394    303.49411    -3546.372    1.1677026    60.586567    58.370865    58.122161    205548.46   -43.092513    52.609968   -46.175195   0.37263311     2.658316   -7.1587599     1.170918          179 
  360000    299.01185    861.84851    62605.642    18769.835    43835.807    8958.0701    44042.738   -4613.1283    289.74242   -3552.3722    1.1722891    60.568076    57.860933    58.422821    204744.26   -90.875159   -91.349208   -79.756033   -8.7708571   0.80905392  -0.13873819    1.1709053          180 
  362000    300.94514    25.159188     63000.91    18891.193    44109.717    9078.4733    44130.671   -4530.6624    289.74031   -3569.4806    1.1709224    60.540508    58.063474    58.313519    204983.23    119.83027   -11.781533    -115.6965    6.1426116   -6.5207234    3.0254053     1.169109          181 
  364000    301.34651   -161.55571    62986.734    18916.388    44070.346    9153.6231    44064.223   -4577.6593    291.66082    -3569.392    1.1699587    60.510617    58.301917    58.151578    205152.08   -10.890353    25.166215    34.833034   -1.6974955    2.6513751   0.51010899    1.1669841          182 
  366000    299.49663   -797.69918    62766.411    18800.266    43966.146    9012.2404    44105.961   -4637.9311    278.68256   -3531.9632    1.1592346    60.735454    58.153327    58.621682    207049.94   -21.551952    177.91719    86.115369   -3.3780886   0.68595151   -1.5504108    1.1676497          183 
  368000    298.23989   -747.15616    62546.696    18721.377     43825.32    8838.4827    44086.614   -4424.8016    289.69005   -3668.8734    1.1726663    60.682258     57.78946    58.366228    204678.39    53.686052     123.9334    49.497338   0.93223319   -6.4322049    5.4794182    1.1671514          184 
  370000    301.17952   -449.31018    62881.556    18905.905    43975.651    8913.5213    44083.258   -4487.5778    283.43775   -3560.1197    1.1666042    60.779252    58.077261    58.285624    205741.99    71.733905    12.511188    52.333969    6.7433536   0.37715033    6.5356167    1.1640425          185 
  372000    299.49494    78.840345    62921.548     18800.16    44121.389    9097.1566    44102.478   -4556.5784    279.91244   -3544.2198    1.1644257    60.968021      58.1133    58.177765    206126.89     34.01859   -23.386242   -34.597841   -6.9474434    5.7241213   -5.5301205    1.1677815          186 
  374000    298.87708   -49.018491    62818.585    18761.375     44057.21    9085.4344    44188.215   -4664.5588    281.20492   -3538.6067    1.1650466    60.989399    58.116814    58.122864    206017.05    20.661023   -74.990828      69.2302    6.4929598   -5.5511343 -5.6210487e-05    1.1665566          187 
  376000    301.00566    93.790015    62818.223    18894.992    43923.231    9050.6064    44030.122   -4553.0169    272.83303   -3585.5345    1.1682967    60.697904     58.47712     57.88068    205443.92    59.746932   -23.315436   -64.941315   -4.0524445   0.57774285    4.8342527    1.1670273          188 
  378000     301.4629    453.14254    62940.855    18923.694    44017.161    9134.6532    44157.644   -4648.8699    264.61163   -3598.8483    1.1699925    60.886589    58.290776    57.801871    205146.15   -70.711431    1.4501502   -68.482723    2.0204401    3.0012751   -3.3761332    1.1680012          189 
  380000    299.86881    253.14829    62830.008    18823.629    44006.379    9013.3294    44166.653   -4635.6359    284.15608   -3530.6238    1.1665264    60.569985    58.155609    58.412098     205755.7   -66.097305    96.842369   -107.69582    1.1163971   0.78793505     -5.91531    1.1673248          190 
  382000    302.72661    518.02223    63275.889    19003.021    44272.868     9109.144    44296.167   -4592.4719    314.65743   -3579.4684    1.1702194    60.658222    58.243463    58.055358    205106.38   -67.924059   -78.911189   -10.630559 -0.010091595   0.39019514    7.5160766    1.1663827          191 
  384000    299.09127    313.77254    62720.106     18774.82    43945.286    9087.7473    44076.429   -4702.0995    271.17543   -3486.6565    1.1649804    60.592227    58.386615    58.236816    206028.76   -37.971069   -49.611262   -7.7966763    2.4981925   -1.9106792   -4.3586288    1.1694558          192 
  386000    298.43368   -688.98697    62660.263    18733.541    43926.722    9080.1254    44053.972   -4653.5536    278.96918   -3550.0303    1.1713231    60.445045    58.101429    58.347495    204913.11    62.048448    105.67394    41.712429   -8.6739193    5.1751075   -3.5636312    1.1665706          193 
  388000    299.05442    508.53305    63027.974    18772.507    44255.468    9012.8947    44261.593   -4433.6017    287.35399   -3572.5758     1.172664    60.489214    58.018769    58.321195     204678.8    -52.46763   -72.595873   -29.517832    2.9633197   -9.9137001    9.6007846     1.167958          194 
  390000    300.32067   -223.57578    62822.468    18851.993    43970.475    9016.7833    44151.156   -4575.8924    278.53375   -3575.3468    1.1648339    60.628312    58.307199    58.288757    206054.66    35.366197    98.844823   -66.249574    1.0468057  -0.08040062   -2.6966807    1.1678641          195 
  392000    299.23083   -484.65578    63008.467    18783.581    44224.886    9134.8134    44195.986   -4623.3229    310.21805   -3500.0822    1.1634417    60.625577    58.275717    58.392669    206301.24    -67.48853    119.95503    94.856741    3.7643584    10.691019   -5.1994202    1.1629917          196 
  394000    300.00523   -308.58115    62786.707    18832.192    43954.515    9128.9588    44026.635   -4581.9579    281.65682   -3573.9534    1.1690369    60.382437    58.147668    58.475682    205313.84    21.782108    67.506885    4.5119623   0.18640733   -7.9102656    5.4706281    1.1672346          197 
  396000    302.17681    1101.9578    62956.944    18968.508    43988.436      9049.88    44060.456   -4689.2123     289.5523   -3415.1274    1.1671805    60.265451    58.517511    58.311495     205640.4   -101.46665   -64.109663    -169.3913    2.9755505    1.8213378   0.63407991    1.1655646          198 
  398000    300.71412    -75.09046    62877.315    18876.691    44000.624    9040.8434    44068.519    -4475.493     300.2699   -3615.2236    1.1668596    60.034863    58.644721    58.424552    205696.95   -48.400671    67.751642    3.4746508   -7.3427924    2.1952123   -1.7958246    1.1666982          199 
  400000    303.08247   -60.996209    62952.952    19025.359    43927.593    9015.9706    44201.523   -4687.6098    269.66948   -3551.9619     1.165803    60.611699    58.238501    58.324987    205883.38    78.111402    2.4159962   -61.986076    5.0294149  -0.97911663 -0.0044494075    1.1643952          200 
  402000    297.70136   -325.02934    62676.705    18687.572    43989.133    9105.5402    44057.214   -4555.5743    281.39495   -3576.3886    1.1701309    60.262307    58.248248    58.436391    205121.89    124.29618    11.999146   -37.494532     4.051445   -7.2277983   -5.6025487     1.171895          201 
  404000    299.77789   -83.238913    62836.296    18817.921    44018.376    9099.3648    44109.222   -4620.2166    264.23519   -3549.7206    1.1641612    60.256116    58.483528    58.505763    206173.74    9.1781838   -10.556869    26.681234   -4.1080489  -0.95330959    4.9613452     1.167733          202 
  406000    298.68235   -513.14915    62830.817    18749.151    44081.666     9002.471    44177.229    -4544.129    272.85942   -3554.2315    1.1684034    60.224941    58.553546    58.253772    205425.16    22.846274    95.280806    37.857433    1.6493576    4.2196878   -2.7965467    1.1677223          203 
  408000    302.37915    1028.8535    62839.502     18981.21    43858.292     9016.058    44132.547   -4745.6066    289.34186   -3522.9921    1.1709783    60.350245    58.108713    58.449028    204973.44   -151.14503   -127.97748    -33.62323    -4.318011    3.1307719    6.4332777    1.1651783          204 
  410000    298.44568   -609.10196    62703.815    18734.294     43969.52    9120.9623     44028.28   -4647.6289    294.32894   -3544.7193    1.1667976    60.512033    58.174499    58.435469    205707.88    152.51082   -11.909092    44.550038    5.4016652   0.46099205   -1.2696818     1.166856          205 
  412000    298.61241   -864.27753    62777.824    18744.761    44033.063    9072.4238    43926.507   -4472.8619    291.42682   -3483.3924    1.1660296    60.686852    58.163856    58.316181    205843.37    36.686591     175.4179    50.614274   -3.7814557    -3.508729  -0.72856162     1.166718          206 
  414000    300.78612    3.4135966    63031.257    18881.211    44150.047     9149.751    43992.821   -4421.4703    302.14303   -3544.3806    1.1643453    60.325899     58.25039    58.662694    206141.13   -44.901204    -21.09941    64.962966     3.951335    2.8038713    6.2334652    1.1652962          207 
  416000    299.92674   -277.98941    62874.878    18827.265    44047.613    9053.5216    44196.154   -4660.7705    281.47664   -3550.4264    1.1647823    60.740295    58.352454    58.138747    206063.79    27.611552    56.878298  0.011980722   -14.320986    1.1733533   -2.5299569    1.1682832          208 
  418000    298.41984   -570.22606    62644.446    18732.673    43911.774    9061.1825    44096.807   -4655.6853     273.6313   -3551.5491    1.1607757    60.639917    58.383575    58.404843    206775.06    71.980042    130.67445    -29.32003    6.3886127   -0.3902833    -1.952951    1.1656115          209 
  420000    296.74183   -26.427583     62751.73    18627.339    44124.391    9026.0001    44235.701   -4573.9845    294.39857   -3571.7908    1.1661197    60.563808    58.113508    58.480766    205827.46      24.8113   -20.954736    4.1767601   -5.0068362   -1.6508709   0.86853937    1.1661664          210 
  422000    300.98714    502.51119    62957.714     18893.83    44063.884    9220.5994    44058.504   -4617.5549    274.94583   -3562.9724    1.1706089    60.967498    58.130333    57.854009    205038.14   -66.122033   -53.469146    -33.15966    5.7890668  -0.68405788    1.8550853    1.1663075          211 
  424000    303.16649    -526.8669     63100.53    19030.633    44069.897    9032.9714    44070.377   -4473.9989    289.18354   -3575.6342    1.1640405    60.663009    58.336061    58.266283    206195.11    18.177167    120.41854     21.55866    2.1239221  -0.23692714   -6.3752209    1.1672098          212 
  426000    299.32981   -848.16058    62845.625    18789.794    44055.831    9117.6984    44169.268   -4649.8166    281.64721   -3563.1686    1.1650037    60.444872    58.419967    58.344294    206024.64    76.618351    148.70575    32.495514   -3.7813286   -2.9161123    4.0916554    1.1676903          213 
  428000    296.68798     606.2421    62622.562    18623.959    43998.603    9175.2674    44152.527   -4844.8461    300.04454   -3461.0663    1.1657445    60.646796    58.229216    58.303454    205893.71   -107.41753   -74.336116   -2.5287919    3.1034684    6.5624201   -5.2110458    1.1650193          214 
  430000    301.18617    294.28178    62726.567    18906.323    43820.244    8998.3024    44135.139    -4572.501    280.23543   -3668.5431    1.1700494    60.647873    57.926482    58.391484    205136.17   -45.536018   -117.94681    74.028522   -3.8503084   -12.260136    4.0710892     1.169043          215 
  432000    301.75536    123.51344     62704.33    18942.053    43762.277    8881.2006    44164.702   -4671.8656    297.93813   -3584.4524    1.1749338    60.537204    58.164409    58.016746    204283.39   -9.2248162   -43.872904    15.552721    5.9019018    4.0672548   0.52389528    1.1687807          216 
  434000    299.21012    -285.0501    62767.096     18782.28    43984.815    8975.0659    44112.946   -4471.3451    296.39504   -3639.5982    1.1649305    60.546223    58.464717    58.205702    206037.58    24.855404    71.140687    -9.347986   -5.5466843    1.8998518   -4.5011831    1.1718383          217 
  436000    301.32899     314.9461    62876.715    18915.288    43961.427    9037.3951    44134.124   -4636.1419    286.88689   -3543.1118    1.1688615    60.774511    58.199554    58.055352    205344.65   -70.435998     15.71263   -41.012374    2.7728453    1.1850953    4.4618378    1.1683756          218 
  438000    295.58213    736.41109    62521.693    18554.541    43967.152    9053.9654    44135.924   -4690.4872    297.13199   -3539.2672    1.1645503    60.932515    58.171647    58.147057    206104.85   -95.605319   -122.22152   -6.0237261   -3.3356768   -5.6399723   -7.2438031    1.1722456          219 
  440000    301.04246   -119.72969    63096.402    18897.302      44199.1    9221.0475    44087.744   -4476.1434    298.06237    -3600.399    1.1674639    60.980365    58.104197    58.023707    205590.47    27.013335    -6.895809    16.277307  -0.96684448    3.2542461    1.8352539    1.1660286          220 
  442000    302.81625    306.15624    62971.755    19008.648    43963.107     9133.643    44055.055   -4679.7886    302.22781   -3519.7407    1.1700338    60.714295    58.058795    58.195456    205138.91   -22.288184    7.6216495   -78.397308    1.9442268   -4.1340549    1.7931289    1.1653013          221 
  444000    298.06063   -23.045791    62522.015    18710.124    43811.891    8975.8497    43982.487   -4546.4409    279.96546   -3534.0453    1.1684468    60.705322     58.49675    57.846755    205417.53     109.1164   -3.8147137   -98.296344   -3.9862069    4.3495592     2.732711    1.1676509          222 
  446000    301.09833    457.06606    63010.984    18900.809    44110.176    9231.9274    44151.171     -4647.52    281.90207   -3580.9521    1.1711587    60.770463    57.907352    58.237732    204941.88   -52.365321   -140.06083    53.489494    2.1098158   -3.8927102   -8.1504035    1.1701438          223 
  448000    301.59991   -313.55737    62769.996    18932.294    43837.702     9026.627    44006.444   -4467.0915    284.88688    -3699.998     1.172573    60.633327    58.019302    58.186561    204694.69   -94.742894    75.552726    114.50377    2.1928907   -2.6523992    7.4320659    1.1683885          224 
  450000     301.0539   -422.90199    62942.154     18898.02    44044.134    8997.3061    44044.712   -4433.9337    319.47553   -3574.8842    1.1702009    60.788352    58.106057    58.068986    205109.62    12.366169    125.46163   -9.2761657  -0.17106179    2.1923778    2.0954744    1.1707514          225 
  452000      298.911    -178.8719    62802.879    18763.504    44039.375    8987.4354    44095.279    -4405.895    306.83324   -3612.2782    1.1661133    60.595857    58.096026    58.467746    205828.59    -64.46913    52.857384    65.984331  0.043247612   -3.9973082   -1.5813475    1.1698175          226 
  454000    299.84528    129.45084    62863.729    18822.151    44041.578    9236.8309    44052.286   -4706.3715    281.51982   -3490.1162    1.1687163    60.391237    58.352812      58.2776    205370.17   -4.7274439   -28.809437   -5.8129371   -6.2550157    4.4235453    9.5793048    1.1668189          227 
  456000    300.30743   -145.73909    62908.424    18851.162    44057.263    9101.3346    44117.038   -4479.7682    266.01109   -3605.8714    1.1740547    60.442969    58.298177    58.017279    204436.35    41.615653   -53.687823    56.373209    4.9931037    5.3897531   -4.5111731    1.1688339          228 
  458000    295.52212   -898.80703    62403.839    18550.774    43853.065    8817.1596    44121.427   -4534.8177    283.13786   -3525.8483    1.1689525    60.496556    58.428834    58.088708    205328.67    104.68475   0.25565511    168.27446   -6.4770653   -4.6294749   -2.4988906    1.1707655          229 
  460000    298.65969    539.33902    62891.092    18747.728    44143.363    9061.5575    44209.135   -4557.4456    293.39406   -3558.1283    1.1658186    60.821803    58.320418     58.04109    205880.62   -158.56152    74.402359   -79.786421   -2.4609907   -0.1065413   -2.5500569    1.1682349          230 
  462000    300.45981   -584.66576    62721.662    18860.727    43860.935    9088.5981    44106.983   -4606.5773    260.11158   -3637.2396    1.1712846    60.836094    58.089396    57.986357    204919.84   -60.763459    110.14236    128.34488   -7.5865193    3.7271928     1.075688    1.1716881          231 
  464000    300.37981     355.8261    62895.249    18855.705    44039.543    9156.0191     44128.19   -4608.5807    307.42489   -3637.8168    1.1699183    61.087729    57.832876    58.071382    205159.17   -55.838587   -93.154675    40.831022    7.4057599   -3.7844796   -1.4922787    1.1696322          232 
  466000    302.98086   -238.32841    63010.506    19018.981    43991.525    9130.2977    44043.149   -4508.5622    281.91512   -3624.8124    1.1729214    60.567765    58.180565    58.070835    204633.88    78.242454   -56.291152    50.494575  -0.72273568    5.4108045    3.1573352     1.168358          233 
  468000    297.50519   -665.70656        62644    18675.257    43968.743    9119.8459    44014.256    -4636.408    274.69753    -3480.142    1.1698037    60.611213    57.935004    58.430479    205179.26    81.218253    63.535462    57.604437   -1.2795064    5.8901447   -1.5670188    1.1688534          234 
  470000    300.44742    35.649728    62841.671     18859.95    43981.722    9064.9302    44159.421    -4602.263    279.98657   -3600.2778    1.1672435    60.917469    57.877765    58.321865    205629.31   -104.44858   -22.882773    116.49473   -6.5100978  -0.94693693    3.8138748    1.1693789          235 
  472000    299.16035    276.27015    62624.726    18779.157    43845.569    9019.0937    43953.853   -4482.1325      292.641   -3631.7904    1.1734071    60.699536    57.978585    58.122563    204549.18   -50.964209    59.048559    -92.06357     1.586316   -3.2144572   -7.2678443    1.1717455          236 
  474000    301.65362    -730.5775    62838.076    18935.666     43902.41    9022.7879    44055.929   -4500.9968    279.89579   -3638.8095    1.1711597    60.297747    58.240564     58.35844     204941.7    149.50269    60.150111    12.424498   -0.2476617     3.816077    4.1447614    1.1688547          237 
  476000    299.97307    772.42878     62780.63    18830.173    43950.457    9191.0402     44118.06   -4727.1839    283.95275   -3590.0901    1.1684971    60.343169    58.036445    58.652955    205408.69   -78.053293   -34.375562   -122.37018   -4.9754719   -2.2748893    9.3519415    1.1711968          238 
  478000    299.67305    617.10126    62800.606     18811.34    43989.266    9142.6417    44010.345   -4531.0822    285.62857   -3617.4213    1.1690526    60.801326    58.288334    57.931893    205311.09   -96.223243   -84.151953    -7.208158    3.6190612   -9.7161096   -4.9466706    1.1710199          239 
  480000    299.95007   -20.501221     62917.39    18828.729    44088.661    8983.2662    44111.868   -4456.0591    301.19212   -3550.6048    1.1725289    60.272394    58.392558    58.163021    204702.38    4.0859361   -21.465375    23.611297    6.0709887    4.5209776  -0.84183502    1.1685318          240 
  482000    300.56425    1077.1377     62820.09    18867.284    43952.807    9099.4047    44058.599    -4644.339      285.587   -3519.4889    1.1704741    60.581737    58.349646    58.010244    205061.74   -97.070759   -87.958009   -142.39418    -5.764468   -1.8009352   -0.4292862     1.172332          241 
[...]
 3908000    299.72745   -410.74114    62507.648    18814.755    43692.893    9020.5766    44087.957   -4561.7247    281.68297   -3776.2295    1.1813844    60.010785      57.0205    59.373805    203167.95    73.471215    30.137765    21.246059   -1.8631826   -1.5230123    5.8379383    1.1796073         1954 
 3910000    301.69017    -273.3498    62607.124     18937.96    43669.163    9126.3231    43973.342   -4609.7659    297.81291   -3798.5683    1.1801567    59.773328    57.067825    59.622205    203379.32   -29.054285   -3.4142015    115.55999  -0.97175796    1.3696635     -5.95327    1.1804307         1955 
 3912000    301.61666   -328.53369    62781.821    18933.346    43848.475    9089.2835    44121.525   -4645.6356    273.49477   -3675.1635    1.1808869    60.147615    56.675354    59.624603    203253.56   -40.013031    79.592081    60.286979    3.9199769    3.0916142     10.36284    1.1779477         1956 
 3914000     299.7581   -533.63871    62443.253    18816.679    43626.574    9084.4273    43994.769   -4650.5687    304.61274   -3778.8918    1.1778785    60.171948    56.782028    59.640461    203772.68     107.7974    10.535542    43.879885  -0.21154867    -1.710929   -5.2082446    1.1820789         1957 
 3916000    296.97315     891.7012    62473.585    18641.859    43831.726    9159.5588    44103.771   -4721.5536    295.49772   -3656.1161     1.177976    60.050678    56.691882    59.850971    203755.81   -161.76495   -53.316666   -55.973254   -2.2043466    1.2931277   -4.6996569    1.1810386         1958 
 3918000    298.56769    254.33251    62449.106    18741.954    43707.152    9131.4561    44078.406   -4663.9515     277.1145   -3744.9405    1.1800449    60.302896    56.774709    59.409354    203398.58    57.237235    -59.23932    -75.30864   -2.1425256    0.7074226    4.9192625    1.1768194         1959 
 3920000    299.45403    -278.4581    62347.074    18797.592    43549.482    8995.0781    43960.859   -4642.2954    289.99635   -3731.4938    1.1833425    60.138115    56.853793    59.323496    202831.78    1.3854193    77.307543    5.9513396    3.5016292    2.2550203   -2.8770437    1.1778171         1960 
 3922000    302.16364    583.48335    62612.177    18967.682    43644.495    9131.8146     44145.23   -4829.9742     295.2614   -3740.8614    1.1740747    59.833635    57.008612    59.932843    204432.88   -79.681724   -41.125889   -56.556739    -2.799589   -1.9329443  -0.80430186    1.1785405         1961 
 3924000    300.27882    -677.1945    62459.674    18849.366    43610.308    8892.4672    43940.849   -4498.2919    287.38642   -3676.9947    1.1804528     60.01928    56.931976    59.504636     203328.3   -15.484958    132.02198    89.313172   -4.6234482     -2.44474    7.2565909    1.1787028         1962 
 3926000     296.8098    106.04163    62290.477    18631.606    43658.871    9055.7538    44089.893   -4726.0278    292.49732   -3689.3656    1.1812628    59.742547    56.989312     59.67917    203188.88   -66.922663    33.272079    1.4165816     3.460352    5.3216467   -2.6617678    1.1788543         1963 
 3928000     301.0372    92.549612    62585.305    18896.972    43688.333    8978.8384    44086.956   -4615.3033    294.85353   -3708.7851    1.1796314    60.173693    56.865947    59.462229    203469.88   -35.126122    39.031249   -32.037896   -3.0200024   0.68570013    6.2418593    1.1771172         1964 
 3930000    299.17995   -229.50509    62478.624    18780.387    43698.238    8935.7071    44090.438   -4653.9449    295.32069   -3647.6943    1.1817034    60.329141    56.796889    59.277006    203113.11    52.523443    3.6350062    13.605361    1.2216977  -0.74702047   -3.0485172    1.1771317         1965 
 3932000    297.58786   -278.99098     62421.54    18680.446    43741.094    9157.8838    43959.771   -4598.7463       293.22   -3739.5276    1.1766817    60.290372    56.984636    59.372003    203979.93     30.75258   -52.972491    107.02619   0.25433418   -5.4892111   0.76964674    1.1778445         1966 
 3934000    298.10472     -589.397    62585.235    18712.892    43872.343    9154.1056    44142.832   -4625.7115    274.16999   -3739.1096    1.1760849    60.113092    57.153288     59.40151    204083.44    44.688058    50.568858    83.905037   -6.9684314      5.60988    1.2876592    1.1793312         1967 
 3936000     300.2282   -337.02265     62373.97    18846.188    43527.781    8916.2926    43915.974   -4557.3766    291.58943   -3709.2604    1.1764474    60.578105    56.976065    59.110661    204020.57    51.468198     135.4148   -84.436542    8.4978589   -3.5129275   -5.0044206    1.1774381         1968 
 3938000    300.20864   -121.22737    62529.852     18844.96    43684.892    9202.9995    44064.741   -4722.6077    263.08709   -3778.6013    1.1804614    60.173836    56.989017    59.291959    203326.82    33.607901   -63.447758    66.689946    1.6616131    2.5175086     3.026655    1.1772602         1969 
 3940000    298.51198   -626.41201    62447.326    18738.457    43708.869     9054.956     43892.46   -4572.3928    284.13941   -3644.8443    1.1751374    60.381683    57.038917    59.303635       204248    59.942632    99.771385    30.699574    2.0321843   -1.0592043   0.90682368    1.1795175         1970 
 3942000    300.74132   -173.51058    62627.235    18878.398    43748.837    9037.2301     44055.33   -4620.9635     276.7355   -3694.1239    1.1755796    60.076883     57.04823    59.572369    204171.18   -56.204949   -2.9461281    111.89395   -5.1691465    2.5969423     2.894877    1.1766244         1971 
 3944000    297.84626   -535.43298    62435.002    18696.667    43738.335    9016.2717    44072.746   -4465.4316    299.96064   -3832.2417    1.1771705    60.421051     56.98755    59.215966    203895.23    75.538144    63.748169    23.471926   -3.2463792   -5.4359471   -2.5487665    1.1812732         1972 
 3946000    301.24105   -226.60604    62417.986    18909.768    43508.219    8909.4427    44034.701   -4605.6385    297.94501   -3771.9088    1.1818378    60.028377    57.251963    59.093759    203090.03    84.842912   -4.4059405   -11.554401    4.6569778  -0.76915941  -0.77330757    1.1804634         1973 
 3948000    298.74231   -77.401183     62406.63    18752.915    43653.715     8953.792    44051.893   -4497.1685    282.47505   -3790.3188    1.1830845    60.281558    56.915762    59.130786       202876   -39.048266    74.174691     -11.5984   -9.9715384    4.3822225    4.4771176    1.1815857         1974 
 3950000    302.42794    310.08616    62648.397    18984.272    43664.125    9051.4321    43916.171    -4582.949    309.12555   -3674.8129    1.1787134    60.469197    57.105931     58.96887    203628.34   -65.099025    19.953991   -49.113406    7.3305841   -3.1495847   -6.7170186     1.181355         1975 
 3952000    300.13756   -152.07534      62591.8    18840.498    43751.302    9192.8478    44099.065   -4717.2691    272.25737   -3753.2723    1.1783332    60.261734    57.230769     59.06186    203694.04     83.44134   -22.124446   -15.089794    1.1522377   -5.5526745    7.8067896     1.179459         1976 
 3954000     300.1049   -151.24503    62496.688    18838.449    43658.239    9042.2427     43902.18   -4586.0652    295.76229   -3665.4164    1.1775956    60.199902    57.194184    59.197398    203821.63    60.112253     25.65779   -39.795335   -1.2127432     2.971519   -7.1108042    1.1810219         1977 
 3956000    300.87142   -327.95706    62635.931    18886.565    43749.366    9133.8457    44097.695   -4661.7223    295.79165   -3765.9736    1.1776325    60.308534    56.739716    59.562201    203815.25    46.103459    -33.43388    87.021167  -0.91865922   -6.4570715    9.8204319    1.1805596         1978 
 3958000     301.6703    488.20838    62573.256    18936.713    43636.543    9159.2664    43868.338   -4669.4747    288.81106   -3656.8878    1.1767895    60.338042    57.124952    59.173956    203961.25   -22.659595   -83.479091   -42.264456   -3.0024008    -2.521316  -0.77662585    1.1807508         1979 
 3960000    296.17435   -331.13461    62263.342    18591.717    43671.625    9041.2786    44067.866   -4673.1297     266.9298   -3695.3046    1.1789723    60.514618    56.902573     59.12221    203583.63    68.464008    5.4763695    26.716266     -1.61739    4.0922579   -5.7810364    1.1800488         1980 
 3962000     299.8121    -802.8886    62416.727    18820.069    43596.659    8996.7451    43973.953   -4505.5854     309.4721   -3847.6388    1.1810137    60.413586    56.743329    59.284626    203231.73    3.8371995    108.01234    132.20853     6.967982   -3.2338898     4.334826    1.1787915         1981 
 3964000    303.40319    168.55721    62671.617    19045.492    43626.125     9048.461    44182.351   -4824.9666    278.65013   -3725.3008    1.1808563    60.768395    56.494222    59.206255    203258.82    61.062529    -71.00496   -41.294746    2.4232966   -1.7293699   0.48908215    1.1822304         1982 
 3966000    300.64476   -64.375074    62669.666    18872.337    43797.329    9159.2142    44147.769   -4733.8751     308.2772   -3727.2684    1.1799178     60.56424    56.924901    59.003277    203420.49   -20.030371    95.252007   -55.653223    2.5991477   -1.3510037   -10.593049    1.1821163         1983 
 3968000    298.92418    287.60084    62552.038    18764.331    43787.706    9126.9077    44039.942   -4622.8779    319.05288   -3724.3372    1.1785601    60.266688    56.832517      59.4594    203654.84    84.129381   -112.12862   -59.424221   -2.3490204    6.4364809    4.2878952    1.1784604         1984 
 3970000    298.27285    141.54808    62440.008    18723.446    43716.562    9096.4537    44078.828   -4659.6547    271.52478   -3746.9942    1.1774422    60.472193    57.122227    59.012772    203848.19   -40.547633   -46.081943    43.602498   -2.0240122   -9.4277199    2.5595679    1.1803447         1985 
 3972000    299.02402    512.16544    62431.142    18770.598    43660.543    9048.9816    44185.278   -4813.5995    288.48836   -3697.1301    1.1810621    60.328761    57.040552    59.056211     203223.4   -82.891141    19.978981   -92.773329    1.8038976    6.7283787   -2.0272617    1.1778413         1986 
 3974000    301.86458   -670.74197    62823.056    18948.909    43874.148    8994.7991    44239.954   -4677.1512    289.94749   -3678.6096    1.1813645    60.302432    56.654202     59.46968    203171.39    93.082004    39.360943    71.445843    2.2766054    1.0492387  -0.27644127    1.1791564         1987 
 3976000    301.43288    294.07237    62380.903     18921.81    43459.093    8940.5743    43938.693   -4692.1833    281.44353   -3655.3101    1.1788072    60.256027    56.891127    59.396198    203612.14   -88.117429   -32.079716    30.806497  -0.91434306   -6.6131897  -0.17648077    1.1803137         1988 
 3978000    301.34075   -828.91824    62629.176    18916.026     43713.15    9018.3546    44058.175   -4575.6996    278.90885   -3763.5044    1.1810386    60.386321    57.057545    58.983522    203227.44    117.09847    148.85535   -13.983401   -1.0388612     9.230802  0.010288544    1.1768935         1989 
 3980000    296.57335   -74.157796     62222.37    18616.763    43605.608     9037.189    44010.344   -4751.1942    271.03299   -3632.1478    1.1771612    60.577406    56.763054    59.297185    203896.84    68.079743    14.906168   -60.443796    -2.115878   -4.2585725   -5.7891731    1.1812561         1990 
 3982000    299.57815    -274.9439    62432.843    18805.383     43627.46    9025.9705    44014.816   -4629.4142    287.99288    -3714.654    1.1781006    60.418434    56.801271    59.365833    203734.27     32.45681    40.639801     10.47946    3.9037808  -0.14383298    2.9051864    1.1756606         1991 
 3984000    304.68199   -424.31628    62750.849    19125.766    43625.083    8916.0381    44038.535   -4542.1861    263.17369   -3714.9093    1.1798089    60.428909    56.730466    59.343572    203439.27    25.908845    22.711577    80.361117    2.0676379    4.0318125   -1.6891929    1.1769037         1992 
 3986000    300.41526   -664.18665    62445.606    18857.931    43587.676    9041.5493    43915.499   -4567.3602     256.9771   -3729.9392    1.1761409    60.224821     56.75406    59.705543    204073.73    92.847515    30.469952     78.57867   -8.3388292   -7.1590603    6.2059704    1.1794484         1993 
 3988000    302.75862    162.83696     62847.67     19005.03     43842.64    9044.6814    44259.145   -4630.6307     262.7384   -3726.1629    1.1759072    60.418246    57.066409    59.200416    204114.29   -96.530967    -3.849827     50.88243   -2.0505366   -3.0396356   -3.7102163    1.1789341         1994 
 3990000    302.83681   -373.66715    62679.075    19009.939    43669.137    9005.4493    44001.541   -4531.0154    279.27919   -3797.6693    1.1777094    60.718274    56.950924    58.937015    203801.95   -20.724086    31.283456     103.0261    1.4478011    3.2556414   -0.4506336    1.1781889         1995 
 3992000    299.48054   -256.08397    62348.762    18799.256    43549.506    9054.6287    43954.053   -4577.1216    278.95963   -3824.1213    1.1783511    60.124522    57.098855    59.332507    203690.95    136.78383    49.288556   -108.22926    4.8663034    3.1599955   -3.6370824    1.1798887         1996 
 3994000    299.42595   -26.975748    62507.532    18795.829    43711.704    9022.9266    43976.719   -4570.6706    289.27524   -3651.2368     1.180381    60.338729     56.71472    59.419949    203340.66    49.806866    79.874405   -121.48132   -10.252076  0.098377827    2.5105377    1.1787607         1997 
 3996000    299.77691   -503.19616    62573.111     18817.86    43755.251     8992.612    44175.184   -4651.7037    288.79654   -3751.5905    1.1818469    60.335794     56.92188    59.133145    203088.46    29.252954    117.92642    5.7796746    4.8316267    -1.054474    3.9775608    1.1782547         1998 
 3998000    296.87521   -408.10312    62281.751    18635.711     43646.04    8985.2719    44021.923   -4653.5123    291.53079    -3670.783    1.1740584    60.491749    57.040538    59.248452    204435.71    97.510312    11.456088    15.086745  -0.34996267     1.775115   -7.2729326    1.1784834         1999 
 4000000    301.11824     790.6327     62618.79    18902.059    43716.731     9188.613    44181.595   -4885.5334    274.13382   -3692.5535    1.1781589    60.083684    56.940895    59.547256    203724.19   -163.00068   -10.800076   -66.531816    1.7035833  -0.69508304    3.0626013    1.1778981         2000 
 4002000    297.44699     199.2111    62276.125    18671.604    43604.521    8998.6952    44182.366   -4806.0433    263.92082   -3695.7032    1.1773717    60.298507    56.763175    59.560678     203860.4   -28.051353   -9.5300106   -22.973832   -6.6991643   -3.1801157    5.0453382     1.179242         2001 
 4004000    300.83487    24.588163    62625.223    18884.271    43740.952    9048.0659    44049.391   -4558.2784    274.41127   -3718.9982     1.178755    60.378366    56.871205    59.299238    203621.16    54.468704   -67.226964    5.2840729    6.7451443    2.4910235   -6.4016876    1.1761201         2002 
 4006000    299.21134   -592.24261    62426.584    18782.357    43644.227     8937.706    43983.266   -4538.7308    285.55889   -3685.2379    1.1730525    59.981436    57.100945    59.740501    204611.02    27.716125    98.596354    53.714468   -7.7113468  -0.97928233   0.38408122    1.1792565         2003 
 4008000    299.07799    175.01451    62464.767    18773.987     43690.78    9124.9079    44086.937   -4690.7405    287.85351   -3776.9929    1.1812139    60.060577    56.999107    59.355417    203197.29   -2.8283377   -5.1829217   -45.188778   -3.1788915   -2.4913015     5.993182    1.1762612         2004 
 4010000    300.49504     32.25947    62371.002    18862.938    43508.064    9042.0408    43939.944   -4665.0176    285.16597   -3736.6442    1.1780814    60.201705    57.242663    59.121105    203737.59    20.626407    40.971603   -71.404082     6.602053    2.9030825   -9.6533224     1.179193         2005 
 4012000    300.32457    897.11475    62606.068    18852.238     43753.83    9108.0297    44087.752   -4749.6532    296.92668   -3693.6339    1.1819292    59.900337    56.891213    59.590982    203074.32   -142.03259   -110.00868    -20.65918   -4.8824202   0.72297284    4.5584931    1.1785076         2006 
 4014000    297.58096    -746.1449    62302.332    18680.014    43622.319    8996.2188    44028.566   -4527.7153    290.73964   -3800.3535    1.1783405    60.135896    57.004592    59.419913    203692.78      64.9418    60.072582    101.79501  -0.34353265    2.6418779    1.4276068    1.1791688         2007 
 4016000    299.57013    344.83259    62639.304    18804.879    43834.425    9123.4889    44090.605   -4684.4803    287.10395   -3616.8699    1.1774283    60.717773     56.95402    58.948366     203850.6    13.831524   -79.704308   -38.947702    4.9653782    2.7320113    2.6920711    1.1769698         2008 
 4018000     299.0191    484.51063    62340.915     18770.29    43570.626    9049.8569    43846.749   -4652.1788    295.75564   -3642.9426    1.1755442    60.593612    56.960949     59.15663    204177.31   -72.851475   -51.193652   -23.233992    4.1177782   -3.7200333   -11.721387    1.1778978         2009 
 4020000    298.32647   -74.788338    62662.525    18726.811    43935.714    9252.9132    44013.112    -4674.936    306.18692   -3658.7776    1.1719762     60.31843    57.228376    59.328889    204798.92    -98.56677    54.909263    66.391291   0.10376237   -5.3546283    2.7036882    1.1743513         2010 

Performance: 2.104 ns/day, 11.405 hours/ns, 48.710 timesteps/s
99.8% CPU use with 16 MPI tasks x no OpenMP threads

MPI task timing breakdown:
Section |  min time  |  avg time  |  max time  |%varavg| %total
---------------------------------------------------------------
Pair    | 51645      | 53821      | 56885      | 702.8 | 65.54
Bond    | 10980      | 11726      | 12409      | 417.4 | 14.28
Kspace  | 6423.8     | 10148      | 12903      |2010.0 | 12.36
Neigh   | 2230.2     | 2231.6     | 2233       |   1.8 |  2.72
Comm    | 771.69     | 799.47     | 822.88     |  62.9 |  0.97
Output  | 50.43      | 50.434     | 50.468     |   0.1 |  0.06
Modify  | 2099.5     | 2452       | 3246.9     | 815.2 |  2.99
Other   |            | 891.3      |            |       |  1.09

Nlocal:        1316.25 ave        1352 max        1274 min
Histogram: 2 0 2 2 1 1 1 3 2 2
Nghost:        13165.6 ave       13226 max       13087 min
Histogram: 1 0 1 2 4 1 3 1 0 3
Neighs:        777612.0 ave      802932 max      743838 min
Histogram: 1 1 1 0 3 2 2 3 2 1

Total # of neighbors = 12441787
Ave neighs/atom = 590.77811
Ave special neighs/atom = 5.7450142
Neighbor list builds = 98766
Dangerous builds = 0

write_data 	    ${myid}.data
write_data 	    relax_rep_1_pxld_60_IFF.data
System init for write_data ...
PPPM initialization ...
  using 12-bit tables for long-range coulomb (../kspace.cpp:340)
  G vector (1/distance) = 0.24016179
  grid = 36 32 36
  stencil order = 5
  estimated absolute RMS force accuracy = 0.00032816546
  estimated relative force accuracy = 9.8826055e-07
  using double precision KISS FFT
  3d grid and FFT values/proc = 9200 3456
write_restart	${myid}.restart
write_restart	relax_rep_1_pxld_60_IFF.restart
System init for write_restart ...
PPPM initialization ...
  using 12-bit tables for long-range coulomb (../kspace.cpp:340)
  G vector (1/distance) = 0.24016179
  grid = 36 32 36
  stencil order = 5
  estimated absolute RMS force accuracy = 0.00032816546
  estimated relative force accuracy = 9.8826055e-07
  using double precision KISS FFT
  3d grid and FFT values/proc = 9200 3456
Total wall time: 22:56:16
