thermo_style   custom step pe ke temp etotal evdwl press pxx pyy pzz v_etrue v_eengx v_eengy v_eengz v_sxx v_syy v_szz f_sxx_ave f_syy_ave                f_szz_ave v_etruex v_etruey v_etruez lx ly lz v_dir vol density ebond eangle edihed eimp bonds angles dihedrals impropers
restart        100000 rst1.a.${myid} rst2.a.${myid}
restart        100000 rst1.a.tensile_L10_rep_1_3_full_xld_erate_2e8_IFF-RX0 rst2.a.${myid}
restart        100000 rst1.a.tensile_L10_rep_1_3_full_xld_erate_2e8_IFF-RX0 rst2.a.tensile_L10_rep_1_3_full_xld_erate_2e8_IFF-RX0
dump           6 all atom 10000 dump.${myid} #every picosecond
dump           6 all atom 10000 dump.tensile_L10_rep_1_3_full_xld_erate_2e8_IFF-RX0 
dump_modify    6 scale no sort id

#-------------------Run-------------------
timestep       ${mytimestep}
timestep       0.1
run            ${steps}
run            5000000
PPPM initialization ...
  using 12-bit tables for long-range coulomb (../kspace.cpp:342)
  G vector (1/distance) = 0.18084032
  grid = 16 16 15
  stencil order = 5
  estimated absolute RMS force accuracy = 0.028769211
  estimated relative force accuracy = 8.6637625e-05
  using double precision KISS FFT
  3d grid and FFT values/proc = 1521 256
Generated 45 of 45 mixed pair_coeff terms from sixthpower/sixthpower mixing rule
Neighbor list info ...
  update: every = 1 steps, delay = 0 steps, check = yes
  max neighbors/atom: 5000, page size: 100000
  master list distance cutoff = 14
  ghost atom cutoff = 14
  binsize = 7, bins = 10 10 8
  1 neighbor lists, perpetual/occasional/extra = 1 0 0
  (1) pair lj/class2/coul/long, perpetual
      attributes: half, newton on
      pair build: half/bin/newton
      stencil: half/bin/3d
      bin: standard
WARNING: Inconsistent image flags (../domain.cpp:815)
Per MPI rank memory allocation (min/avg/max) = 21.41 | 21.44 | 21.81 Mbytes
   Step         PotEng         KinEng          Temp          TotEng         E_vdwl         Press           Pxx            Pyy            Pzz          v_etrue        v_eengx        v_eengy        v_eengz         v_sxx          v_syy          v_szz        f_sxx_ave      f_syy_ave      f_szz_ave       v_etruex       v_etruey       v_etruez          Lx             Ly             Lz           v_dir          Volume        Density         E_bond        E_angle        E_dihed        E_impro        Bonds      Angles      Diheds      Impros   
         0  -1298895.3      17821.59       298           -1281073.7     -844.74462     -200.76934      302.51748     -860.79651     -44.028982      0             -6.6003242e-16  1.123047e-16  -9.1307983e-16 -30.652584      87.220207      4.4612366      0              0              0             -6.6613381e-16  2.220446e-16  -8.8817842e-16  64.591622      63.269191      54.472774      3              222611.69      1.2360703     -1276044.3      12635.042      8663.0366      893.71016          21924       36303       53175       13773 
      2000  -1299305.6      17928.405      299.7861      -1281377.2     -887.74421     -321.20364     -528.35915     -249.56852     -185.68326      3.99992e-05    0.0011907096  -0.0014415876   4e-05          53.534516      25.286081      18.812868     -16.92746       19.145378     -11.995811      0.0011900013  -0.0014426277   3.99992e-05    64.668531      63.177983      54.474953      3              222564.36      1.2363332     -1276131        12501.311      8566.2073      874.99339          21924       36303       53175       13773 
      4000  -1299096.6      17736.713      296.58076     -1281359.9     -754.55742     -475.58919     -878.23805     -205.24726     -343.28225      7.99968e-05    0.0037536523  -0.0044944228   8e-05          88.988262      20.797461      34.783851     -8.2413442      15.561364     -6.0916112      0.0037466249  -0.0045045531   7.99968e-05    64.834076      62.984832      54.477132      3              222460.82      1.2369086     -1276155.1      12561.644      8592.9501      906.80162          21924       36303       53175       13773 
      6000  -1299095        17886.858      299.09138     -1281208.1     -953.44456     -383.52815     -281.48766      200.97001     -1070.0668      0.0001199928   0.0067945607  -0.0058094502   0.00012        28.52267      -20.362339      108.42548     -4.3835368     -16.07957      -5.910261       0.0067715817  -0.0058263907   0.0001199928   65.030493      62.901631      54.479311      3              222848.94      1.2347544     -1276066.5      12621.523      8580.4094      917.76962          21924       36303       53175       13773 
      8000  -1298846.3      17892.96       299.1934      -1280953.3     -805.46943     -723.3035      -819.62957     -645.72439     -704.55654      0.0001599872   0.0082761188  -0.0065705295   0.00016        83.050321      65.429373      71.390534      5.9069928     -6.3052284      21.628511      0.0082420595  -0.0065922104   0.0001599872   65.126189      62.853479      54.48149       3              223014.94      1.2338353     -1275905.8      12590.499      8585.542       902.61808          21924       36303       53175       13773 
     10000  -1299066.4      17862.206      298.67915     -1281204.2     -828.04392     -73.90616      -449.07323      999.10872     -771.75397      0.00019998     0.0089404811  -0.0066220171   0.0002         45.499988     -101.23705      78.195593      0.22404622    -3.5136766     -9.6982484      0.0089007517  -0.00664404     0.00019998     65.169102      62.850221      54.483669      3              223159.25      1.2330374     -1276026.3      12610.814      8503.5507      884.59455          21924       36303       53175       13773 
     12000  -1299133.5      17846.552      298.41741     -1281286.9     -891.02694     -466.15165     -1467.1086      61.967745      6.6858434      0.0002399712   0.0089717176  -0.0056747378   0.00024        148.6553      -6.2783625     -0.67692772     3.5112713     -15.349429     -8.1858388      0.0089317108  -0.0056909003   0.0002399712   65.171119      62.910155      54.485848      3              223387.9       1.2317753     -1275952.8      12633.672      8417.1211      882.78472          21924       36303       53175       13773 
     14000  -1298844.4      17856.923      298.59082     -1280987.5     -809.3224      -179.93019     -745.08892     -393.03675      598.33511      0.00027996081  0.0085390696  -0.005427342    0.00028        75.497972      39.826261     -60.624503      16.44894       15.633766      24.921909      0.008502818   -0.0054421235   0.00027996081  65.143174      62.925807      54.488027      3              223356.6       1.2319479     -1275895.9      12640.62       8527.4965      919.09111          21924       36303       53175       13773 
     16000  -1299017.9      17794.352      297.54455     -1281223.6     -831.19862     -574.5661       160.63819     -380.78838     -1503.5481      0.00031994881  0.0075296429  -0.0057996207   0.00032       -16.27903       38.581071      152.34467     -14.369411     -5.6383294      18.395421      0.0075014366  -0.0058165039   0.00031994881  65.077973      62.902253      54.490205      3              223058.44      1.2335947     -1276008.8      12605.028      8532.1633      900.77041          21924       36303       53175       13773 
     18000  -1299130.4      17917.292      299.60027     -1281213.1     -812.93572      53.783642     -415.56952      610.29619     -33.375742      0.00035993522  0.0073163942  -0.0059240203   0.00036        42.108603     -61.837257      3.3828042     -6.0286596      4.3778393      10.61509       0.0072897592  -0.0059416369   0.00035993522  65.064199      62.894383      54.492384      3              222992.24      1.2339609     -1276088.3      12556.088      8571.136       865.52385          21924       36303       53175       13773 
     20000  -1299005        17899.672      299.30563     -1281105.3     -857.76137     -95.967146      258.81435     -603.13616      56.420378      0.00039992002  0.0067133645  -0.0065963568   0.0004        -26.225468      61.111702     -5.7178819      4.5889882      11.989201     -3.1557164      0.0066909302  -0.0066182089   0.00039992002  65.025249      62.851844      54.494563      3              222716.93      1.2354863     -1276171.2      12748.58       8592.806       901.2085           21924       36303       53175       13773 
     22000  -1299139.2      17673.159      295.51805     -1281466       -935.63096     -452.4006       482.24919     -503.33587     -1336.1151      0.00043990323  0.0053263378  -0.0082480341   0.00044       -48.864011      51.000397      135.38175     -0.553105      -3.5348047      8.0080805      0.0053122031  -0.0082822373   0.00043990323  64.935658      62.747344      54.496742      3              222049.16      1.2392017     -1276070.9      12596.204      8614.3324      896.55343          21924       36303       53175       13773 
     24000  -1298931.8      17726.036      296.40222     -1281205.8     -787.58553      1137.4465      1054.988       1024.4133      1332.9384      0.00047988484  0.0042415796  -0.0091155192   0.00048       -106.89546     -103.79748     -135.05879      2.1303633     -19.081274     -27.631424      0.0042326095  -0.0091573198   0.00047988484  64.865592      62.692459      54.498921      3              221624.41      1.2415767     -1276086.3      12700.955      8578.0072      896.05889          21924       36303       53175       13773 
     26000  -1299035.6      17839.472      298.29901     -1281196.2     -882.91528      98.775544     -352.65972      977.39902     -328.41267      0.00051986485  0.0044254632  -0.0065377801   0.00052        35.732583     -99.035613      33.275751     -15.499805     -15.302629     -24.411966      0.0044156996  -0.006559245    0.00051986485  64.877469      62.855551      54.5011        3              222250.53      1.238079      -1276132.2      12655.848      8612.3545      914.72865          21924       36303       53175       13773 
     28000  -1299150.3      17763.429      297.02748     -1281386.8     -841.34122     -468.77726      137.36257     -1004.3283     -539.36608      0.00055984326  0.0055429879  -0.0041430251   0.00056       -13.919814      101.762        54.649724     -11.041434     -2.3720374     -6.5607562      0.0055276821  -0.0041516312   0.00055984326  64.949652      63.007065      54.503279      3              223043.06      1.2336798     -1276098.4      12551.946      8545.9516      897.9993           21924       36303       53175       13773 
     30000  -1299008.6      17679.584      295.62548     -1281329.1     -808.28681     -436.58757      434.54989     -1193.2008     -551.11182      0.00059982007  0.0060232019  -0.0026756483   0.0006        -44.027957      120.9039       55.844225      28.523347      27.746195      9.0561356      0.006005135   -0.0026792343   0.00059982007  64.98067       63.099905      54.505458      3              223487.32      1.2312274     -1275972.2      12490.259      8587.2015      913.98531          21924       36303       53175       13773 
     32000  -1298935.1      17837.517      298.26632     -1281097.6     -747.10902      8.3109084     -437.52198      654.36486     -191.91016      0.00063979529  0.0047183209  -0.0034286228   0.00064        44.331375     -66.304063      19.444754      7.8942928      2.7303509      1.251375       0.0047072245  -0.003434514    0.00063979529  64.896386      63.052264      54.507637      3              223037.84      1.2337086     -1276062.1      12571.644      8610.668       896.33495          21924       36303       53175       13773 
     34000  -1299068.8      17643.174      295.01667     -1281425.7     -803.46945      73.778805      198.90846      393.15984     -370.73189      0.0006797689   0.0043567851  -0.0050834757   0.00068       -20.156613     -39.839109      37.562191     -15.072539      5.0090821     -7.0096885      0.0043473218  -0.0050964405   0.0006797689   64.873033      62.947563      54.509816      3              222596.25      1.2361561     -1276002.4      12487.946      8575.8311      899.40804          21924       36303       53175       13773 
     36000  -1299083        17848.199      298.44495     -1281234.8     -973.53042     -377.73294      72.586269     -362.26651     -843.51859      0.00071974092  0.0041295937  -0.0061826736   0.00072       -7.351468       36.709989      85.472935     -6.2549462      6.6712585     -4.8596043      0.0041210903  -0.0062018655   0.00071974092  64.858359      62.878018      54.511995      3              222308.91      1.2377538     -1276099.3      12683.815      8591.0257      914.71984          21924       36303       53175       13773 
     38000  -1299069        17890.193      299.14714     -1281178.8     -934.22866     -452.78057     -1047.9607      9.3224906     -319.70353      0.00075971135  0.0046727635  -0.0079279746   0.00076        106.1833      -0.94590592     32.392677     -3.9555698     -6.7699035     -3.6867767      0.00466188    -0.0079595681   0.00075971135  64.893443      62.767594      54.514173      3              222047.42      1.2392114     -1276084.5      12576.181      8689.952       905.49598          21924       36303       53175       13773 
     40000  -1299185.9      17735.361      296.55814     -1281450.5     -889.2495      -958.91955     -344.60619     -357.60067     -2174.5518      0.00079968017  0.0049351446  -0.0081883004   0.0008         34.915739      36.232431      220.33501      8.7219957     -11.854651     -1.6278021      0.0049230067  -0.0082220087   0.00079968017  64.910391      62.751123      54.516352      3              222056         1.2391635     -1276135.5      12601.505      8589.5318      878.74135          21924       36303       53175       13773 
     42000  -1299145        17616.026      294.5627      -1281528.9     -830.21479      598.59733      1981.9819      85.130533     -271.32047      0.0008396474   0.0043907458  -0.0082155668   0.00084       -200.82219     -8.6236808      27.493682      4.5045884     -0.40512259     32.555211      0.0043811346  -0.0082495005   0.0008396474   64.875227      62.749398      54.518531      3              221938.48      1.2398197     -1276119.7      12565.265      8575.0747      883.75473          21924       36303       53175       13773 
     44000  -1298992.3      17861.025      298.65941     -1281131.3     -758.92402      270.17547      238.90298     -115.06557      686.689        0.00087961303  0.005457408   -0.0067921909   0.00088       -24.206058      11.659819     -69.577955     -23.570521     -9.2334921     -12.599646      0.0054425703  -0.0068153628   0.00087961303  64.944124      62.839454      54.52071       3              222501.93      1.2366801     -1276006.7      12575.849      8549.8574      882.97022          21924       36303       53175       13773 
     46000  -1299095.1      17769.836      297.13462     -1281325.2     -752.8849       429.3178       596.34658     -135.78253      827.38934      0.00091957706  0.0073708442  -0.0054350493   0.00092       -60.42706       13.75593      -83.837446      7.5037928      18.747847      13.353585      0.0073438123  -0.0054498729   0.00091957706  65.067716      62.925319      54.522889      3              223238.89      1.2325975     -1276160.7      12547.864      8587.1369      882.42533          21924       36303       53175       13773 
     48000  -1299099.9      17827.882      298.10522     -1281272       -701.04334      905.94847      2447.8405      636.40328     -366.39842      0.00095953949  0.0081976479  -0.0067014942   0.00096       -248.02357     -64.479731      37.129092     -3.6491022      9.7021861      25.026131      0.0081642297  -0.00672405     0.00095953949  65.121121      62.845193      54.525068      3              223146.53      1.2331077     -1276104        12572.35       8492.7032      875.88065          21924       36303       53175       13773 
     50000  -1298941.5      17862.17       298.67856     -1281079.4     -662.74328      470.4473       290.62838     -26.971919      1147.6854      0.00099950033  0.010812667   -0.0066754913   0.001         -29.449088      2.7317752     -116.29039      2.6922254     -16.73575       7.1823455      0.010754628   -0.006697872    0.00099950033  65.290029      62.846838      54.527247      3              223740.12      1.2298362     -1276084        12727.599      8479.3094      855.33805          21924       36303       53175       13773 
     52000  -1299166.7      17829.064      298.12498     -1281337.6     -760.9857      -331.03849     -5.4238082     -959.98446     -27.707205      0.0010394596   0.012093115   -0.0059242142   0.00104        0.54884405     97.269706      2.8067117      15.609155      3.0201912      26.350666      0.012020577   -0.005941832    0.0010394596   65.372735      62.89437       54.529426      3              224201.94      1.227303      -1276156.4      12576.085      8507.9527      872.69638          21924       36303       53175       13773 
     54000  -1299030.2      17951.836      300.17789     -1281078.4     -776.36674      105.83048     -207.60317      961.18111     -436.08649      0.0010794172   0.010480511   -0.0060047526   0.00108        21.038303     -97.388763      44.189381      29.087094      9.9350103      15.753282      0.010425971   -0.0060228536   0.0010794172   65.268575      62.889275      54.531605      3              223835.51      1.2293121     -1276029.8      12637.078      8496.7933      880.29426          21924       36303       53175       13773 
     56000  -1298904.3      17785.213      297.39173     -1281119.1     -816.16371     -662.75208     -759.98369     -242.56205     -985.7105       0.0011193733   0.0067741412  -0.0076170382   0.00112        77.003864      24.576071      99.875616      2.1792248      13.638739      20.687393      0.0067512998  -0.007646196    0.0011193733   65.029174      62.787267      54.533784      3              222661.66      1.2357929     -1275991.5      12616.308      8610.2597      895.43023          21924       36303       53175       13773 
     58000  -1299081.7      17770.058      297.13832     -1281311.6     -817.59288     -68.61017      -400.34378      167.46145      27.051815      0.0011593277   0.0049301314  -0.0091555755   0.00116        40.564806     -16.968059     -2.7410525     -25.055468     -12.953419     -3.840047       0.0049180181  -0.0091977454   0.0011593277   64.910067      62.689925      54.535963      3              221918.13      1.2399334     -1276091.6      12537.327      8635.9575      900.63498          21924       36303       53175       13773 
     60000  -1299092.4      17862.227      298.67951     -1281230.2     -831.5921      -149.94278      596.3792      -653.96011     -392.24742      0.0011992806   0.0051399496  -0.0088951598   0.0012        -60.427259      66.263362      39.745328     -20.509328     -23.016985      15.872208      0.0051267852  -0.008934958    0.0011992806   64.923619      62.706401      54.538141      3              222031.67      1.2392993     -1276025.7      12543.098      8581.4562      883.3034           21924       36303       53175       13773 
     62000  -1298789.2      17879.663      298.97106     -1280909.6     -829.38149     -233.10582     -601.51071     -645.64109      547.83435      0.0012392318   0.0056040725  -0.0077012901   0.00124        60.94954       65.421031     -55.507839      20.636347      1.3563768      7.8267633      0.0055884281  -0.0077310982   0.0012392318   64.953598      62.781936      54.54032       3              222410.66      1.2371876     -1275988.3      12651.253      8668.6959      909.54974          21924       36303       53175       13773 
     64000  -1298973.7      17738.974      296.61856     -1281234.7     -795.49803     -185.88143     -404.71248     -242.31998      89.388169      0.0012791815   0.0054812016  -0.0072002467   0.00128        41.006219      24.551834     -9.0585213     -7.0838696     -0.62249581     13.910738      0.0054662345  -0.0072262936   0.0012791815   64.945661      62.813637      54.542499      3              222504.66      1.2366649     -1275968.7      12479.517      8615.3378      899.97143          21924       36303       53175       13773 
     66000  -1299037.1      17801.159      297.65838     -1281235.9     -845.93385      79.406496      1101.46        1.5960319     -864.83652      0.0013191296   0.0062781475  -0.0062918307   0.00132       -111.60439     -0.16068563     87.630572     -10.581159     -0.35196592     15.563982      0.006258522   -0.0063117076   0.0013191296   64.997137      62.871112      54.544678      3              222893.68      1.2345065     -1276072.3      12598.944      8621.4318      877.85932          21924       36303       53175       13773 
     68000  -1298870.2      17911.361      299.50109     -1280958.8     -863.1195       67.973109     -1005.2145      926.53893      282.59486      0.001359076    0.0076520824  -0.0054348577   0.00136        101.85462     -93.88028      -28.632655      7.6662189      13.369518      1.3417535      0.0076229537  -0.0054496803   0.001359076    65.085882      62.925332      54.546857      3              223399.42      1.2317118     -1275941.7      12663.995      8615.4568      887.48078          21924       36303       53175       13773 
     70000  -1298988.4      17757.818      296.93366     -1281230.6     -806.70566      337.81576     -27.051267     -90.312149      1130.8107      0.0013990209   0.007572698   -0.0051698805   0.0014         2.7385713      9.1485709     -114.5817       11.28283      -4.3515272      28.22057       0.0075441691  -0.0051832905   0.0013990209   65.080754      62.942096      54.549036      3              223450.26      1.2314316     -1276001.3      12626.687      8560.0097      897.51362          21924       36303       53175       13773 
     72000  -1299027.2      17713.829      296.1981      -1281313.4     -755.67593      343.6974       468.56576      226.11825      336.40818      0.0014389642   0.0064870598  -0.0068666966   0.00144       -47.476294     -22.9103       -34.085416     -6.4010515      28.500913      6.7496076      0.0064661093  -0.0068903809   0.0014389642   65.010631      62.83474       54.551215      3              222837.68      1.2348167     -1276118.3      12600.619      8562.2165      898.62976          21924       36303       53175       13773 
     74000  -1299053.7      18007.939      301.11601     -1281045.8     -823.09265     -426.90974     -323.05774     -574.33397     -383.33751      0.0014789059   0.0065025653  -0.0091048967   0.00148        32.733385      58.193948      38.841234      1.7570684     -7.2475972      12.669518      0.0064815148  -0.0091465996   0.0014789059   65.011633      62.693131      54.553394      3              222347.79      1.2375374     -1276114        12555.603      8636.1981      881.6816           21924       36303       53175       13773 
     76000  -1299140.8      17687.033      295.75004     -1281453.8     -890.9249       566.14128      596.11058      1001.0079      101.30539      0.001518846    0.007057153   -0.0095250806   0.00152       -60.400829     -101.42705     -10.264697     -14.26304      -30.176898      0.30838631     0.0070323678  -0.0095707343   0.001518846    65.047455      62.666546      54.555573      3              222384.84      1.2373312     -1276141.5      12597.458      8603.6363      895.9244           21924       36303       53175       13773 
     78000  -1299177.3      17988.971      300.79884     -1281188.3     -786.38346     -52.905422      238.13014     -268.08977     -128.75664      0.0015587845   0.0081742058  -0.0076028461   0.00156       -24.127471      27.165283      13.047352      1.8615465     -7.9271226     -31.022759      0.008140978   -0.0076318951   0.0015587845   65.119607      62.788165      54.557752      3              223072.49      1.233517      -1276137.1      12629.084      8473.0993      883.51015          21924       36303       53175       13773 
     80000  -1299110.4      17919.219      299.63249     -1281191.2     -774.6059       913.05324      386.67922      950.60829      1401.8722      0.0015987214   0.0072191833  -0.0067179618   0.0016        -39.182573     -96.32269      -142.04699      18.743706      6.4811752      18.334003      0.0071932497  -0.0067406289   0.0015987214   65.05792       62.844151      54.559931      3              223068.81      1.2335373     -1276122.1      12546.868      8587.6871      882.83858          21924       36303       53175       13773 
     82000  -1299174        17707.988      296.10044     -1281466       -746.19438      598.95547      705.38561      191.0663       900.4145       0.0016386567   0.0046925588  -0.0061269036   0.00164       -71.471668     -19.358284     -91.232984      15.09313       1.2612947      8.2412126      0.004681583   -0.0061457501   0.0016386567   64.894722      62.881546      54.56211       3              222650.53      1.2358547     -1276119.1      12602.288      8482.0548      858.4653           21924       36303       53175       13773 
     84000  -1299043.2      17861.435      298.66626     -1281181.7     -749.61222      487.02995      688.55248     -218.84918      991.38655      0.0016785904   0.0041731919  -0.0050463458   0.00168       -69.767469      22.175005     -100.45213     -23.905104      3.8999043     -25.070681      0.0041645083  -0.0050591216   0.0016785904   64.861175      62.949912      54.564288      3              222786.28      1.2351017     -1276119.5      12686.547      8511.1202      886.53268          21924       36303       53175       13773 
     86000  -1299063.2      17775.909      297.23615     -1281287.3     -909.04478     -1.1975333     -548.20999     -35.35425       579.97164      0.0017185225   0.0048904738  -0.003873247    0.00172        55.545929      3.5808552     -58.767063     -0.57677339     8.2493258      21.078601      0.0048785543  -0.0038807674   0.0017185225   64.907505      63.024133      54.566467      3              223217.19      1.2327174     -1276057.6      12663.888      8596.7511      866.18949          21924       36303       53175       13773 
     88000  -1299328.9      17752.257      296.84067     -1281576.7     -830.38048      212.71068      601.36457      123.05306     -86.285607      0.001758453    0.0047503619  -0.0050927925   0.00176       -60.932223     -12.46731       8.7439355     -4.3341406     -0.8465402      15.427493      0.0047391145  -0.005105805    0.001758453    64.898455      62.946974      54.568646      3              222921.72      1.2343512     -1276145.3      12462.683      8565.5486      878.77663          21924       36303       53175       13773 
     90000  -1298935.9      17728.713      296.44699     -1281207.2     -838.90911      250.29212      379.57332      114.74542      256.55763      0.0017983819   0.0052756186  -0.006603307    0.0018        -38.459715     -11.626035     -25.995137     -8.0498209      12.797634      40.318447      0.0052617513  -0.0066252053   0.0017983819   64.932382      62.851405      54.570825      3              222708.53      1.2355329     -1276039.2      12693.827      8562.5413      895.91573          21924       36303       53175       13773 
     92000  -1299135        17977.112      300.60053     -1281157.9     -866.19652      413.07605      1196.5662     -390.64359      433.30559      0.0018383093   0.0074424548  -0.0073936207   0.00184       -121.24324      39.58081      -43.905866     -8.149953      -13.037125     -1.7337575      0.0074148964  -0.007421089    0.0018383093   65.072342      62.801402      54.573004      3              223019.91      1.2338078     -1276061.6      12594.06       8536.1185      872.82521          21924       36303       53175       13773 
     94000  -1299144.9      17705.303      296.05554     -1281439.6     -937.36011     -448.10375     -212.98381     -1255.8539      124.5265       0.001878235    0.0077412553  -0.007912444    0.00188        21.580947      127.24976     -12.617285      15.159107      7.0885951      18.222285      0.0077114455  -0.0079439135   0.001878235    65.091642      62.768577      54.575183      3              222978.36      1.2340377     -1276068.8      12641.49       8574.5971      876.37316          21924       36303       53175       13773 
     96000  -1298939.3      17890.206      299.14735     -1281049.1     -752.72354      1032.6285      1190.1062      580.95954      1326.8199      0.0019181592   0.0078793895  -0.0087975107   0.00192       -120.58737     -58.865588     -134.43988     -6.4737511     -3.8244181     -4.4640306      0.0078485092  -0.0088364373   0.0019181592   65.100564      62.712579      54.577362      3              222818.86      1.234921      -1276101.6      12652.945      8613.7151      904.26393          21924       36303       53175       13773 
     98000  -1298981.2      17733.81       296.53221     -1281247.4     -790.57992      417.28366      67.535952     -124.51339      1308.8284      0.0019580817   0.0083886724  -0.0092805136   0.00196       -6.8446468      12.614761     -132.61863      4.8022792      4.9538021     -1.3110865      0.008353683   -0.0093238459   0.0019580817   65.13346       62.68202       54.579541      3              222831.72      1.2348498     -1276094.4      12667.055      8592.3923      907.52293          21924       36303       53175       13773 
    100000  -1299090.4      17654.024      295.19809     -1281436.4     -766.48722      1030.8294      1202.9461      953.49043      936.05179      0.0019980027   0.0082500737  -0.0086238117   0.002         -121.88852     -96.612418     -94.845448     -7.0132449     -23.448569     -6.205802       0.0082162278  -0.0086612119   0.0019980027   65.124507      62.723569      54.58172       3              222957.68      1.2341522     -1276114.5      12591.033      8564.4441      884.58094          21924       36303       53175       13773 
    102000  -1298732.4      17696.434      295.90724     -1281036       -843.05984     -679.70555     -301.35882     -1209.8964     -527.86144      0.002037922    0.0089893207  -0.0071004656   0.00204        30.5354        122.59297      53.485776      4.9133262      6.029087       29.981817      0.0089491572  -0.0071257938   0.002037922    65.172256      62.81995       54.583899      3              223472.92      1.2313067     -1275971.3      12675.62       8746.7672      902.93374          21924       36303       53175       13773 
    104000  -1298881        17695.432      295.89048     -1281185.6     -740.5167      -230.47782     -283.74928     -24.463992     -383.22018      0.0020778398   0.009581431   -0.0054518731   0.00208        28.749274      2.4771785      38.828164     -8.7650654     -4.4459921      4.6747378      0.0095358202  -0.0054667888   0.0020778398   65.210502      62.924255      54.586078      3              223984.27      1.2284957     -1276121.1      12670.857      8608.1764      895.73744          21924       36303       53175       13773 
    106000  -1299038        17594.839      294.20844     -1281443.1     -843.40216     -864.99102     -858.8387      -1325.4371     -410.69724      0.002117756    0.010230072   -0.0039197679   0.00212        87.020463      134.29854      41.612522      1.7319493      3.165862       1.6944075      0.010178099   -0.0039274703   0.002117756    65.252398      63.02119       54.588256      3              224482.4       1.2257696     -1276105.3      12644.691      8581.9262      877.92097          21924       36303       53175       13773 
    108000  -1298999.3      17804.682      297.71728     -1281194.6     -723.08817     -300.52613     -441.95506     -273.82947     -185.79386      0.0021576706   0.0096573115  -0.0052913729   0.00216        44.783548      27.748208      18.828016      9.6243731      25.876879      9.2005454      0.0096109777  -0.0053054218   0.0021576706   65.215403      62.93441       54.590435      3              224055.14      1.2281071     -1276151.9      12623.932      8563.0909      896.22966          21924       36303       53175       13773 
    110000  -1298832        17729.179      296.45478     -1281102.8     -731.81538      422.60006      235.25532     -18.509256      1051.0541      0.0021975835   0.0090168971  -0.0067225771   0.0022        -23.83772       1.8749739     -106.49853      5.1673452     -5.4173332     -3.4293101      0.0089764876  -0.0067452754   0.0021975835   65.174038      62.843859      54.592614      3              223599.77      1.2306081     -1276088.9      12817.276      8569.5962      878.70182          21924       36303       53175       13773 
    112000  -1299150.3      17731.13       296.48739     -1281419.2     -786.96877      469.25092     -87.66076       1001.2012      494.21235      0.0022374949   0.0081660951  -0.0081480672   0.00224        8.8802382     -101.44869     -50.078081      6.8534417      15.500129      3.6475469      0.008132933   -0.0081814441   0.0022374949   65.119083      62.753669      54.594793      3              223099.51      1.2333676     -1276110.5      12586.455      8558.9131      895.53679          21924       36303       53175       13773 
    114000  -1299040.5      17692.862      295.84751     -1281347.7     -762.55329      1100.9371      1186.982       1844.5531      271.27631      0.0022774047   0.0077928976  -0.0087196079   0.00228       -120.26904     -186.8975      -27.485186     -15.652266     -30.61442      -0.15790961     0.0077626898  -0.0087578461   0.0022774047   65.094977      62.717508      54.596972      3              222897.31      1.2344864     -1276107.9      12740.977      8468.3146      882.75171          21924       36303       53175       13773 
    116000  -1299189.8      17962.152      300.35038     -1281227.6     -845.44279     -152.10596      798.75078     -1037.9196     -217.14902      0.002317313    0.0079355493  -0.0078152299   0.00232       -80.933377      105.16725      22.00267       8.3129035      12.329762      1.1023554      0.0079042284  -0.0078459288   0.002317313    65.104192      62.774727      54.599151      3              223141.15      1.2331374     -1276159.9      12710.431      8484.0711      854.38599          21924       36303       53175       13773 
    118000  -1298958.4      17917.2        299.59874     -1281041.2     -789.5146       490.51014      865.31027      98.398555      507.8216       0.0023572196   0.007747629   -0.0083110728   0.00236       -87.675034     -9.9676894     -51.452456     -3.4436335     -3.9148627      5.0225579      0.0077177702  -0.0083458023   0.0023572196   65.092053      62.743356      54.60133       3              222996.96      1.2339348     -1276053.7      12600.452      8644.3755      903.71831          21924       36303       53175       13773 
    120000  -1299001.9      17949.719      300.14248     -1281052.2     -749.12389      374.08426     -74.852553      519.87989      677.22543      0.0023971246   0.0081750205  -0.0080946937   0.0024         7.5808692     -52.680429     -68.623454     -8.3056555     -10.321995     -3.0008723      0.008141786   -0.0081276336   0.0023971246   65.119659      62.757046      54.603509      3              223149.11      1.2330934     -1276087.6      12731.229      8464.2105      888.70947          21924       36303       53175       13773 
    122000  -1298937.7      17651.98       295.16391     -1281285.7     -780.83487     -823.8732      -154.83039     -1158.9803     -1157.8089      0.002437028    0.0092081191  -0.006923391    0.00244        15.688243      117.43373      117.31505     -4.0376391      0.83500816     25.259669      0.0091659829  -0.0069474689   0.002437028    65.186389      62.831153      54.605688      3              223650.48      1.2303291     -1276013.2      12652.359      8519.4228      897.39903          21924       36303       53175       13773 
    124000  -1299027.2      17871.909      298.84141     -1281155.3     -706.60339     -231.9083       427.12553      96.976937     -1219.8274      0.0024769299   0.010440193   -0.0067631971   0.00248       -43.276534     -9.8242187      123.60101     -6.7780079      0.43776438     0.026112058    0.01038607    -0.0067861712   0.0024769299   65.265971      62.841289      54.607867      3              223968.58      1.2285817     -1276165.1      12684.316      8463.208       898.15114          21924       36303       53175       13773 
    126000  -1298855.5      17884.534      299.05251     -1280970.9     -786.85232     -461.39245     -607.31331     -213.39809     -563.46595      0.0025168301   0.011014126   -0.0070597089   0.00252        61.534787      21.62132       57.091943      4.0117831      13.242664      20.631089      0.010953912   -0.0070847465   0.0025168301   65.303042      62.822529      54.610046      3              224037.83      1.228202      -1276002.4      12788.139      8496.3127      871.77041          21924       36303       53175       13773 
    128000  -1299093.5      17791.213      297.49206     -1281302.3     -796.9167       370.2184       661.41827      710.57707     -261.34013      0.0025567288   0.011110711   -0.0084248557   0.00256       -67.018145     -71.99916       26.48035       1.3117308      1.7910664      6.051334       0.01104944    -0.0084605454   0.0025567288   65.30928       62.736157      54.612224      3              223760.11      1.2297263     -1276195        12637.72       8568.9371      901.96887          21924       36303       53175       13773 
    130000  -1299193.5      18025.785      301.41441     -1281167.7     -777.17237     -112.44519     -133.15179      437.13991     -641.3237       0.0025966258   0.0096852617  -0.0088226164   0.0026         13.492619     -44.292169      64.983131      24.094708     -17.054627      22.073741      0.0096386602  -0.0088617661   0.0025966258   65.217208      62.710991      54.614403      3              223363.94      1.2319075     -1276143.6      12476.387      8606.7964      877.06088          21924       36303       53175       13773 
    132000  -1298909.8      17814.359      297.8791      -1281095.5     -801.54928      240.6472       700.26163      314.31208     -292.63211      0.0026365213   0.0070341894  -0.0080421233   0.00264       -70.954711     -31.848362      29.650258      4.2971202     -7.6030959      5.520461       0.0070095649  -0.0080746356   0.0026365213   65.045971      62.760372      54.616582      3              222961.78      1.2341294     -1275989.2      12637.802      8563.0725      902.5812           21924       36303       53175       13773 
    134000  -1299261.3      17855.673      298.56992     -1281405.7     -887.48868      254.33148     -265.84057      755.88362      272.95139      0.0026764152   0.005843706   -0.0072274649   0.00268        26.935619     -76.590595     -27.65749      -5.1133532      14.794257      7.2499073      0.0058266978  -0.0072537096   0.0026764152   64.969076      62.811915      54.618761      3              222889.99      1.234527      -1276098.9      12654.435      8434.5335      884.64377          21924       36303       53175       13773 
    136000  -1299264.4      18086.898      302.4363      -1281177.5     -799.17505      313.66603     -174.76658      436.61649      679.14818      0.0027163075   0.0044554845  -0.0074171168   0.00272        17.711211     -44.237191     -68.811751     -12.172501     -5.1153048      27.061329      0.0044455882  -0.0074447604   0.0027163075   64.879409      62.799916      54.62094       3              222548.73      1.23642       -1276184.5      12630.839      8476.9241      871.65095          21924       36303       53175       13773 
    138000  -1298892.3      17777.839      297.26844     -1281114.5     -775.39323     -72.998768     -225.73524      275.574       -268.83506      0.0027561982   0.0045123123  -0.0067681452   0.00276        22.871688     -27.923471      27.238755     -0.55529699     1.504964      -2.6089138      0.0045021623  -0.006791153    0.0027561982   64.883079      62.840976      54.623119      3              222715.72      1.235493      -1275973.4      12737.747      8488.1928      856.21157          21924       36303       53175       13773 
    140000  -1299039.6      17795.106      297.55716     -1281244.5     -810.98256     -824.61717     -844.86771     -338.35583     -1290.628       0.0027960873   0.0051753424  -0.0059812495   0.0028         85.605663      34.283352      130.77233     -3.7595713     -1.2636753      10.968141      0.0051619963  -0.0059992088   0.0027960873   64.925905      62.890762      54.625298      3              223048.18      1.2336514     -1276095.7      12623.104      8595.5685      857.92535          21924       36303       53175       13773 
    142000  -1298922.7      17927.912      299.77785     -1280994.8     -827.53792     -301.35471     -1158.2127      375.0238      -120.87528      0.0028359748   0.0067085025  -0.0063251585   0.00284        117.35951     -37.995743      12.251237     -2.6808525      3.1388072      14.346945      0.0066861006  -0.006345247    0.0028359748   65.024935      62.869003      54.627477      3              223320.01      1.2321498     -1276040.4      12598.477      8666.1917      870.5598           21924       36303       53175       13773 
    144000  -1298868.6      17811.402      297.82965     -1281057.2     -744.42166     -459.00204     -638.83199     -452.45857     -285.71557      0.0028758607   0.0075182276  -0.0062829066   0.00288        64.727397      45.84314       28.947897      3.793733       5.9324267     -4.4615348      0.0074901066  -0.0063027271   0.0028758607   65.077236      62.871676      54.629656      3              223518.05      1.2310581     -1276085.2      12797.618      8495.5185      880.09481          21924       36303       53175       13773 
    146000  -1299127        17890.528      299.15274     -1281236.5     -828.9244      -297.94308     -190.98593     -194.20643     -508.63687      0.0029157451   0.007279358   -0.0056524551   0.00292        19.35154       19.677857      51.537523      3.8423042     -17.710221     -10.689639      0.0072529914  -0.0056684907   0.0029157451   65.061807      62.911564      54.631835      3              223615.75      1.2305202     -1276071.9      12707.22       8385.2839      893.68977          21924       36303       53175       13773 
    148000  -1299139.3      17817.953      297.9392      -1281321.3     -789.29767     -187.79268     -282.43585     -202.82874     -78.113453      0.0029556278   0.0062225083  -0.0061544577   0.00296        28.616435      20.550281      7.9134777     -0.90701608     20.369003      24.148972      0.0062032285  -0.0061734744   0.0029556278   64.993543      62.879803      54.634014      3              223277.26      1.2323857     -1276106        12752.99       8402.0332      846.6475           21924       36303       53175       13773 
    150000  -1299194.6      17864.332      298.7147      -1281330.2     -824.31511      408.32309      370.36702      45.579194      809.02306      0.002995509    0.004685852   -0.007503548    0.003         -37.525892     -4.6167746     -81.972715      17.33392       0.033398377   -5.9187456      0.0046749076  -0.0075318412   0.002995509    64.894288      62.794447      54.636192      3              222642.54      1.2358991     -1276205.7      12760.735      8414.6348      870.13895          21924       36303       53175       13773 
    152000  -1298835.6      17802.091      297.67396     -1281033.5     -821.78833     -41.290035     -253.96212      54.289906      75.802111      0.0030353885   0.0030658264  -0.0082634048   0.00304        25.733302     -5.500336      -7.6800606     -15.469123     -19.313508     -13.592845      0.0030611363  -0.0082977359   0.0030353885   64.789648      62.746372      54.638371      3              222122.21      1.2387942     -1276044.4      12653.654      8714.6076      889.34398          21924       36303       53175       13773 
    154000  -1299322.8      17902.86       299.35895     -1281419.9     -843.73519     -11.104802     -436.93466      985.13588     -581.51563      0.0030752665   0.0032101485  -0.0077311167   0.00308        44.271888     -99.81941       58.921552     -18.134229     -4.0924444      3.1047146      0.003205007   -0.0077611567   0.0030752665   64.79897       62.780049      54.64055       3              222282.27      1.2379022     -1276211.6      12526.357      8552.1881      881.10276          21924       36303       53175       13773 
    156000  -1299014.2      17766.898      297.08548     -1281247.3     -880.34696     -468.34538     -624.21694     -705.97631     -74.842881      0.0031151429   0.0042611489  -0.0063164092   0.00312        63.250597      71.534818      7.5852283      0.16256169     2.5207058     -3.411022       0.0042520959  -0.0063364421   0.0031151429   64.866856      62.869557      54.642729      3              222841.27      1.2347969     -1276043.4      12683.645      8557.9769      882.57153          21924       36303       53175       13773 
    158000  -1298957        17912.783      299.52487     -1281044.2     -725.54717      585.09097     -85.770546      1530.3532      310.6903       0.0031550177   0.0060031934  -0.0037657583   0.00316        8.6920772     -155.06167     -31.47931       0.83413972     5.887262       9.7487385      0.005985246   -0.0037728666   0.0031550177   64.979378      63.030934      54.644908      3              223809.74      1.2294536     -1276060.9      12626.445      8550.5726      892.19746          21924       36303       53175       13773 
    160000  -1298994.9      18084.503      302.39625     -1280910.4     -715.48661      493.83372      305.67613      309.59241      866.23261      0.0031948909   0.00792811    -0.0022082618   0.0032        -30.975099     -31.37193      -87.773509      1.2743534      14.305838      19.860729      0.0078968477  -0.0022107036   0.0031948909   65.103711      63.129476      54.647087      3              224597.51      1.2251414     -1276143.3      12725.462      8509.4897      884.39343          21924       36303       53175       13773 
    162000  -1299024.1      17786.771      297.41779     -1281237.3     -775.24219      203.57897     -222.1408       764.59002      68.287692      0.0032347625   0.0080275979  -0.0027603193   0.00324        22.508287     -77.472209     -6.9193761      39.038672      25.042997      41.253464      0.0079955481  -0.002764136    0.0032347625   65.110137      63.094547      54.649266      3              224504.36      1.2256497     -1276101.1      12663.722      8536.3485      876.72796          21924       36303       53175       13773 
    164000  -1298971.6      17872.231      298.8468      -1281099.3     -699.40359     -15.529913      342.42373      634.90717     -1023.9206      0.0032746325   0.0061857981  -0.0048428512   0.00328       -34.694427     -64.330303      103.75044     -0.70883016     6.2843317      19.515596      0.0061667446  -0.0048546158   0.0032746325   64.991172      62.962787      54.651445      3              223635.1       1.2304138     -1276099.3      12618.208      8561.6729      895.10559          21924       36303       53175       13773 
    166000  -1298840.6      17898.417      299.28465     -1280942.2     -726.21931      78.31315       79.95877       242.66819     -87.687506      0.003314501    0.0042373623  -0.0073457291   0.00332       -8.1044689     -24.591038      8.8822796     -3.7767165     -5.4450495      19.533913      0.0042284099  -0.0073728418   0.003314501    64.86532       62.804432      54.653624      3              222649.55      1.2358601     -1276067.8      12604.688      8680.4885      906.55957          21924       36303       53175       13773 
    168000  -1299163.7      17869.442      298.80015     -1281294.3     -857.90447     -561.35989     -1006.4606     -76.977392     -600.64166      0.0033543678   0.0040724934  -0.0074608645   0.00336        101.97881      7.7989247      60.859199     -22.860728     -7.7247286     -9.8935301      0.0040642233  -0.007488836    0.0033543678   64.854671      62.797148      54.655803      3              222596.05      1.2361572     -1276120.2      12551.067      8612.7379      877.94017          21924       36303       53175       13773 
    170000  -1299163        17896.684      299.25568     -1281266.3     -859.03589     -790.6726      -430.4979      -480.22239     -1461.2975      0.0033942331   0.0046664401  -0.0080948177   0.0034         43.621932      48.660263      148.06768      4.2511864     -13.395432     -3.6365799      0.004655586   -0.0081277587   0.0033942331   64.893034      62.757038      54.657982      3              222594.34      1.2361667     -1276099.1      12490.643      8649.9396      875.43269          21924       36303       53175       13773 
    172000  -1299051.2      18086.473      302.42919     -1280964.8     -853.45842     -61.725615     -360.58708      375.26887     -199.85864      0.0034340967   0.0047643544  -0.0079598473   0.00344        36.535748     -38.024877      20.249921      5.2995963     -2.9992772      3.2831939      0.0047530408  -0.007991696    0.0034340967   64.899359      62.765578      54.660161      3              222655.2       1.2358288     -1276025.4      12612.246      8541.3612      872.97069          21924       36303       53175       13773 
    174000  -1298897.4      17680.025      295.63286     -1281217.4     -822.47697      253.34181      371.74774     -399.25819      787.53586      0.0034739588   0.0044591883  -0.0068831824   0.00348       -37.667384      40.454792     -79.797115     -11.275841      3.8368686      8.2036349      0.0044492755  -0.0069069808   0.0034739588   64.879648      62.833697      54.662339      3              222838.03      1.2348148     -1276013.8      12626.66       8660.0234      902.19948          21924       36303       53175       13773 
    176000  -1299057.4      17838.267      298.27887     -1281219.1     -832.25297     -673.50079     -1221.7119      209.69926     -1008.4897      0.0035138193   0.005518554   -0.0057944438   0.00352        123.78925     -21.248501      102.18451      9.7656048      5.2421805      5.4122958      0.0055033826  -0.0058112967   0.0035138193   64.948074      62.902581      54.664518      3              223326.5       1.232114      -1276066.7      12658.08       8534.1015      864.6342           21924       36303       53175       13773 
    178000  -1299122.5      17706.402      296.07391     -1281416.1     -789.9818      -331.30839     -1470.8108      182.36207      294.52358      0.0035536782   0.0047056484  -0.0056113115   0.00356        149.02934     -18.478421     -29.843187      15.17762      -7.4051286      19.134215      0.0046946115  -0.005627114    0.0035536782   64.895567      62.914167      54.666697      3              223195.96      1.2328346     -1276125.2      12626.129      8462.8239      886.23681          21924       36303       53175       13773 
    180000  -1299016.2      17884.034      299.04415     -1281132.1     -882.01925     -434.13766     -81.363146     -113.08363     -1107.9662      0.0035935355   0.0032815505  -0.0046678703   0.0036         8.2457423      11.459798      112.26629     -16.265994     -6.2407759      7.2191662      0.003276178   -0.0046787989   0.0035935355   64.803582      62.973858      54.668876      3              223099.94      1.2333652     -1276048.9      12570.715      8629.6077      907.32901          21924       36303       53175       13773 
    182000  -1299059.8      17895.193      299.23074     -1281164.6     -780.97403      190.83702      632.84987      671.72662     -732.06543      0.0036333912   0.0033798351  -0.003832169    0.00364       -64.12516      -68.064341      74.1749       -6.2659835      14.404677      31.89945       0.0033741363  -0.0038395306   0.0036333912   64.809931      63.026732      54.671055      3              223318.04      1.2321607     -1276100.6      12635.822      8506.4045      890.673            21924       36303       53175       13773 
    184000  -1299056.7      17665.962      295.39771     -1281390.8     -762.27019      604.89114      243.90474      674.65686      896.11181      0.0036732454   0.0034687623  -0.0032610841   0.00368       -24.712677     -68.358654     -90.797566      3.3645539     -5.734359       29.121638      0.0034627601  -0.003266413    0.0036732454   64.815675      63.062864      54.673234      3              223474.77      1.2312965     -1276197        12683.82       8516.7092      889.79679          21924       36303       53175       13773 
    186000  -1298991.2      17778.989      297.28766     -1281212.3     -706.19841      1111.0024      1248.3019      1486.5302      598.1751       0.0037130979   0.0031605326  -0.003463831    0.00372       -126.48325     -150.62171     -60.609143     -10.198912      10.595703      9.7334524      0.0031555486  -0.003469844    0.0037130979   64.795765      63.050037      54.675413      3              223369.59      1.2318763     -1276093.1      12755.388      8425.006       878.44407          21924       36303       53175       13773 
    188000  -1299009.3      18035.956      301.58449     -1280973.4     -859.97116      314.86677      782.24377     -19.286771      181.64331      0.0037529489   0.0047824148  -0.0033225083   0.00376       -79.259522      1.9555696     -18.403672      8.3069673      17.739478      12.77598       0.0047710154  -0.0033280401   0.0037529489   64.900525      63.058978      54.677592      3              223771.37      1.2296645     -1276033.8      12614.538      8565.6516      911.35569          21924       36303       53175       13773 
    190000  -1298916.2      17669.161      295.45119     -1281247.1     -768.92868      170.9992       82.205641      172.64997      258.142        0.0037927982   0.0059028593  -0.0059028572   0.0038        -8.331859      -17.496162     -26.158665      13.703739      4.4798425      32.388811      0.0058855056  -0.0059203479   0.0037927982   64.972897      62.895722      54.679771      3              223449.83      1.231434      -1276003.3      12656.305      8526.0978      880.79668          21924       36303       53175       13773 
    192000  -1299154.1      17819.027      297.95715     -1281335.1     -839.08949      501.38294      870.16125      641.27125     -7.2836818      0.003832646    0.005364708   -0.0090015689   0.00384       -88.168136     -64.975821      0.73898741    -4.2937926     -9.9929217      9.6060466      0.0053503692  -0.0090423278   0.003832646    64.938137      62.699669      54.68195       3              222643.01      1.2358965     -1276113.3      12654.557      8509.5299      875.84279          21924       36303       53175       13773 
    194000  -1299019.9      18026.677      301.42932     -1280993.2     -827.94049      927.40204      1201.9194      403.8377       1176.4491      0.0038724922   0.0052371921  -0.0098081024   0.00388       -121.7844      -40.918774     -119.20362     -1.8410443     -27.021158      28.23957       0.0052235257  -0.0098565187   0.0038724922   64.9299        62.64864       54.684129      3              222442.45      1.2370107     -1276048.2      12620.293      8592.1157      881.86997          21924       36303       53175       13773 
    196000  -1298896.3      17767.034      297.08776     -1281129.3     -851.01051     -113.49113      664.00325     -722.41489     -282.06174      0.0039123368   0.0056290132  -0.0080763383   0.00392       -67.280266      73.198552      28.57977      -0.75860195    -14.299058      36.485806      0.0056132295  -0.0081091286   0.0039123368   64.955209      62.758207      54.686307      3              222927.23      1.2343208     -1275984.1      12742.635      8489.8864      899.37255          21924       36303       53175       13773 
    198000  -1299041.7      17806.542      297.74839     -1281235.1     -795.60035     -461.32764     -311.91634     -288.11854     -783.94806      0.0039521798   0.0058671506  -0.0068284148   0.00396        31.603827      29.192519      79.43245      -0.1052224      6.8413526     -1.8160062      0.0058500059  -0.0068518351   0.0039521798   64.97059       62.837162      54.688486      3              223269.44      1.2324289     -1276084.1      12639.981      8517.2822      888.03532          21924       36303       53175       13773 
    200000  -1299300        17755.586      296.89633     -1281544.5     -862.26961     -56.662367      653.32445      141.97346     -965.28501      0.0039920213   0.0059677903  -0.0061990037   0.004         -66.199383     -14.386757      97.806221      1.6684443      13.02333       40.430546      0.0059500535  -0.0062182973   0.0039920213   64.977091      62.876985      54.690665      3              223442.19      1.2314761     -1276193.2      12568.983      8507.1811      874.50796          21924       36303       53175       13773 
    202000  -1298905.2      17711.63       296.16133     -1281193.6     -814.89774     -72.689144     -788.86331      415.17089      155.62499      0.0040318611   0.0059016753  -0.0064644297   0.00404        79.933019     -42.065754     -15.767252     -1.7185614      5.5115426      18.967988      0.0058843286  -0.0064854146   0.0040318611   64.97282       62.860191      54.692844      3              223376.73      1.2318369     -1276022.7      12593.143      8684.5029      896.22536          21924       36303       53175       13773 
    204000  -1299057.8      17910.111      299.48019     -1281147.7     -848.81953     -341.50945     -654.32364     -944.93314      574.72845      0.0040716994   0.0060134476  -0.0065447986   0.00408        66.298675      95.74468      -58.235042      1.8217698      1.6282223      33.286845      0.0059954389  -0.0065663097   0.0040716994   64.98004       62.855107      54.695023      3              223392.38      1.2317506     -1276023.8      12631.389      8525.3748      894.31841          21924       36303       53175       13773 
    206000  -1299199.7      17750.405      296.8097      -1281449.3     -871.57607     -520.70174     -867.09309     -690.22517     -4.7869596      0.004111536    0.00416005    -0.0070362814   0.00412        87.857111      69.935963      0.48394045     24.069609     -3.4418979      32.319813      0.0041514209  -0.0070611527   0.004111536    64.860326      62.824011      54.697202      3              222879.38      1.2345857     -1276118.1      12585.217      8532.4899      880.6227           21924       36303       53175       13773 
    208000  -1299051.5      17947.575      300.10664     -1281103.9     -750.47722      635.51345      1009.6555      551.27149      345.61331      0.0041513711   0.0015103313  -0.0071866209   0.00416       -102.30192     -55.856161     -35.017841     -15.476264     -15.743499     -9.6763028      0.0015091919  -0.0072125691   0.0041513711   64.689176      62.814499      54.699381      3              222266.46      1.2379902     -1276011.4      12629.021      8456.492       881.56561          21924       36303       53175       13773 
    210000  -1298987.4      17784.747      297.38394     -1281202.7     -894.34234     -1068.4844     -1243.311      -1433.5447     -528.59748      0.0041912046   0.00055618669 -0.0057538497   0.0042         125.97661      145.25205      53.558281     -15.790491      4.7040425      4.9048937      0.00055603208 -0.0057704669   0.0041912046   64.627547      62.905149      54.70156       3              222384.02      1.2373358     -1275912.6      12591.723      8545.5367      872.76538          21924       36303       53175       13773 
    212000  -1299163.8      17830.074      298.14188     -1281333.7     -880.90955     -218.74443      332.92923     -968.75106     -20.411458      0.0042310365  -0.00070665256 -0.0055707112   0.00424       -33.732595      98.160114      2.0696095     -3.6173268      12.048999      31.809898     -0.00070690236 -0.0055862855   0.0042310365   64.545978      62.916736      54.703739      3              222153.1       1.2386219     -1276048.3      12558.491      8535.5191      870.50309          21924       36303       53175       13773 
    214000  -1299070.4      17934.401      299.88635     -1281136       -893.91724      41.881464     -67.16073       73.774989      119.03013      0.0042708669   0.00071558911 -0.0066767462   0.00428        6.8047536     -7.4755582     -12.061034     -26.972701     -2.886075       1.533611       0.00071533319 -0.0066991354   0.0042708669   64.637843      62.846758      54.705918      3              222230.69      1.2381895     -1276021.4      12655.747      8507.35        891.16944          21924       36303       53175       13773 
    216000  -1298957.5      17752.194      296.83961     -1281205.3     -938.24489     -642.82506     -311.78508     -955.28197     -661.40812      0.0043106956   0.0035840056  -0.0076856927   0.00432        31.590712      96.793032      67.016253      3.4023117      10.372094     -12.67575       0.0035775983  -0.0077153799   0.0043106956   64.823118      62.782923      54.708097      3              222650.18      1.2358566     -1275973.2      12667.689      8604.0838      887.09082          21924       36303       53175       13773 
    218000  -1299278.6      17839.49       298.29931     -1281439.1     -814.49782     -582.23063     -580.27605      139.24635     -1305.6622      0.0043505227   0.0057097003  -0.009651298    0.00436        58.796282     -14.109324      132.29603      3.133318      -0.7666094      23.294858      0.0056934617  -0.0096981736   0.0043505227   64.96042       62.658561      54.710275      3              222688.68      1.235643      -1276013.8      12461.412      8473.0421      877.04118          21924       36303       53175       13773 
    220000  -1298817.6      17711.833      296.16473     -1281105.8     -763.21901     -7.8194535      361.15601     -168.1291      -216.48527      0.0043903483   0.0068580963  -0.010841923    0.0044        -36.592894      17.036921      21.936627      2.3876443      0.78618015     41.790537      0.0068346866  -0.010901125    0.0043903483   65.034597      62.583231      54.712454      3              222683.8       1.23567       -1275890.9      12618.085      8584.7823      880.65671          21924       36303       53175       13773 
    222000  -1298987.9      17838.013      298.27462     -1281149.9     -787.90255     -315.55433     -833.47962      3.1086002     -116.29196      0.0044301723   0.00784421    -0.011214644    0.00444        84.450293     -0.31699443     11.78122       21.108869     -8.1461041      9.9134352      0.0078136041  -0.011278002    0.0044301723   65.098292      62.559649      54.714633      3              222826.78      1.2348772     -1276042.4      12609.543      8583.2108      889.1776           21924       36303       53175       13773 
    224000  -1299134.6      17719.865      296.29904     -1281414.7     -763.90925     -574.01519     -1327.3188     -315.12728     -79.599541      0.0044699947   0.0083447232  -0.0099447243   0.00448        134.49118      31.930882      8.0660499     -10.735284     -8.2353337      33.666143      0.0083100985  -0.0099945034   0.0044699947   65.130621      62.639996      54.716812      3              223232.66      1.232632      -1276084.7      12640.671      8446.5047      855.27928          21924       36303       53175       13773 
    226000  -1299130.5      17916.623      299.58907     -1281213.8     -758.5772      -635.30511     -761.7087      -797.26658     -346.94006      0.0045098155   0.0080803666  -0.0094611082   0.00452        77.180639      80.783534      35.154206      4.154347      -2.4554741      13.750598      0.0080478953  -0.0095061488   0.0045098155   65.113546      62.670594      54.718991      3              223292.04      1.2323041     -1276069.6      12646.522      8443.955       859.46295          21924       36303       53175       13773 
    228000  -1298926.6      17717.164      296.25387     -1281209.4     -805.80409     -441.56017     -1155.1721      116.25803     -285.76646      0.0045496347   0.0078548356  -0.0081371571   0.00456        117.04751     -11.780146      28.954987      8.3127058     -9.2549884      11.230186      0.0078241469  -0.0081704445   0.0045496347   65.098978      62.754359      54.72117       3              223549.37      1.2308856     -1276060.7      12835.854      8459.0747      860.91974          21924       36303       53175       13773 
    230000  -1299002        17749.908      296.80139     -1281252.1     -811.5116       194.12039     -339.80858      357.29824      564.87152      0.0045894523   0.0066602734  -0.0063433647   0.0046         34.43167      -36.202688     -57.235052      1.5810592      10.200943      6.6885975      0.0066381918  -0.0063635693   0.0045894523   65.021819      62.867851      54.723349      3              223697.12      1.2300726     -1276078.9      12634.316      8570.0049      892.0954           21924       36303       53175       13773 
    232000  -1298986.8      17998.625      300.96026     -1280988.2     -708.49984      578.29287      1470.0513      525.60976     -260.78248      0.0046292684   0.0045111603  -0.0059830035   0.00464       -148.95214     -53.256591      26.424604      7.4388782     -3.9881308      11.670169      0.0045010156  -0.0060009734   0.0046292684   64.883005      62.890651      54.725528      3              223309.4       1.2322083     -1276141.7      12725.971      8515.8029      880.16809          21924       36303       53175       13773 
    234000  -1299216.4      17884.57       299.05311     -1281331.9     -815.02871      964.85853      745.96519      487.91213      1660.6983      0.0046690828   0.0031159063  -0.0062196049   0.00468       -75.586431     -49.43923      -168.27178     -12.423962      22.987133      21.063139      0.0031110619  -0.0062390272   0.0046690828   64.792883      62.875681      54.727707      3              222955.02      1.2341669     -1276129.4      12568.445      8571.7999      871.5283           21924       36303       53175       13773 
    236000  -1299134.3      17879.657      298.97097     -1281254.6     -845.3839       183.50495     -174.75206      249.58495      475.68195      0.0047088957   0.0031962359  -0.0073206912   0.00472        17.70881      -25.28715      -48.196375     -1.4533868      2.554151       32.442144      0.0031911387  -0.0073476189   0.0047088957   64.798072      62.806016      54.729886      3              222734.69      1.2353877     -1276151.8      12621.797      8556.1233      893.82626          21924       36303       53175       13773 
    238000  -1298964.2      17840.06       298.30884     -1281124.2     -905.93448     -203.94937     -316.55465      630.45869     -925.75216      0.004748707    0.0036375924  -0.0086241616   0.00476        32.073712     -63.882442      93.800625     -3.4046416     -8.7733713      12.719976      0.0036309924  -0.0086615649   0.004748707    64.82658       62.723547      54.732065      3              222548.95      1.2364188     -1275888.5      12583.079      8546.7318      884.09851          21924       36303       53175       13773 
    240000  -1299172        17675.812      295.5624      -1281496.2     -891.26234     -137.70046      183.56485     -729.55695      132.89072      0.0047885167   0.0040245157  -0.0091498403   0.0048        -18.598439      73.923623     -13.463892     -2.3158596     -13.768929      28.069314      0.004016439   -0.0091919572   0.0047885167   64.851572      62.690288      54.734243      3              222525.55      1.2365488     -1276129.2      12651.411      8544.855       877.99985          21924       36303       53175       13773 
    242000  -1298927.7      17787.989      297.43816     -1281139.7     -844.55916      410.80364     -327.96791      885.26538      675.11345      0.0048283249   0.0039500176  -0.0085775063   0.00484        33.232224     -89.698648     -68.404987      11.734155      4.0258419      46.19517       0.0039422367  -0.0086145048   0.0048283249   64.84676       62.726499      54.736422      3              222646.43      1.2358775     -1275946.4      12642.363      8568.1716      891.27626          21924       36303       53175       13773 
    244000  -1298913.9      17738          296.60228     -1281175.9     -795.97587     -177.74068      625.10985     -192.23888     -966.09301      0.0048681314   0.0026580127  -0.0062000633   0.00488       -63.340627      19.477244      97.888         6.967107      -7.8863467      17.189851      0.0026544864  -0.0062193635   0.0048681314   64.763307      62.876918      54.738601      3              222902         1.2344605     -1275961.9      12575.698      8620.6954      900.48078          21924       36303       53175       13773 
    246000  -1299294.3      17817.495      297.93153     -1281476.8     -839.70721     -607.06421     -322.8251      -608.10641     -890.26112      0.0049079364   0.00043232019 -0.0031829333   0.00492        32.710764      61.616894      90.206222     -15.054286      14.721402      6.7366616      0.00043222677 -0.0031880096   0.0049079364   64.619546      63.067809      54.74078       3              223091.3       1.233413      -1276167        12593.827      8466.7452      883.96556          21924       36303       53175       13773 
    248000  -1298911.3      17813.315      297.86163     -1281098       -827.40944     -622.26881     -735.11573      286.17129     -1417.862       0.0049477397  -0.00040638019 -0.0024067726   0.00496        74.48599      -28.995919      143.66525     -14.164638      24.415769      23.136529     -0.00040646278 -0.0024096736   0.0049477397   64.565373      63.116916      54.742959      3              223086.71      1.2334383     -1276047.5      12642.121      8638.9611      912.08423          21924       36303       53175       13773 
    250000  -1298965.5      17732.079      296.50326     -1281233.5     -848.87021     -774.89485     -544.22679     -776.72626     -1003.7315      0.0049875415   0.00019788178 -0.0037146688   0.005          55.141887      78.69989       101.70121     -23.597598      18.735681      15.210251      0.00019786221 -0.0037215854   0.0049875415   64.604403      63.034167      54.745138      3              222937.79      1.2342623     -1275989.3      12492.918      8697.7785      901.96061          21924       36303       53175       13773 
    252000  -1299194.2      17809.443      297.79689     -1281384.7     -843.38641     -1155.3556     -1157.8183     -674.38861     -1633.8598      0.0050273417   0.002425119   -0.0064684523   0.00504        117.31662      68.333101      165.55152      7.2503282      1.5715912      27.852852      0.0024221832  -0.0064894634   0.0050273417   64.748264      62.859937      54.747317      3              222825.51      1.2348842     -1276061.6      12434.635      8610.6296      859.38472          21924       36303       53175       13773 
    254000  -1298699.8      17711.456      296.15842     -1280988.3     -770.72976     -420.65575     -911.6687      -335.49708     -14.801477      0.0050671403   0.00515076    -0.0077931208   0.00508        92.375076      33.994482      1.5000063      2.4861045     -35.110104     -3.381387       0.0051375402  -0.0078236458   0.0050671403   64.924317      62.776126      54.749496      3              223142.36      1.2331307     -1275891.4      12765.482      8535.1491      881.60608          21924       36303       53175       13773 
    256000  -1298953.7      17683.249      295.68676     -1281270.5     -918.54595     -1265.7386     -2193.3296     -1444.9725     -158.91353      0.0051069374   0.0064771932  -0.0072423791   0.00512        222.23758      146.41029      16.100377      19.280627      10.017443      25.249053      0.0064563064  -0.0072687324   0.0051069374   65.009994      62.810971      54.751675      3              223569.75      1.2307734     -1276094.8      12780.919      8581.4359      903.7837           21924       36303       53175       13773 
    258000  -1299086.1      17813.821      297.8701      -1281272.2     -793.48022     -721.40718     -615.59307     -904.82825     -643.80021      0.0051467328   0.0057424989  -0.0077000367   0.00516        62.375409      91.682158      65.233501     -6.5944043     -4.6061874     -1.8680619      0.0057260736  -0.0077298351   0.0051467328   64.962539      62.782016      54.753854      3              223312.45      1.2321915     -1276101        12614.706      8542.5511      902.45828          21924       36303       53175       13773 
    260000  -1299115.1      17830.773      298.15355     -1281284.3     -757.70624      110.70943     -556.84832      404.57795      484.39866      0.0051865267   0.0054035205  -0.0082678745   0.0052         56.422031     -40.994488     -49.082318      4.8448786      8.0117491      15.957448      0.0053889738  -0.0083022429   0.0051865267   64.940644      62.746089      54.756033      3              223118.32      1.2332636     -1276102.4      12623.088      8470.855       888.90081          21924       36303       53175       13773 
    262000  -1299073.3      17813.128      297.85851     -1281260.2     -825.04116     -143.80637      239.32333     -747.74157      76.999122      0.005226319    0.0044976929  -0.0088953108   0.00524       -24.248746      75.765595     -7.8012537     -6.8898113      4.8126528     -16.392476      0.0044876085  -0.0089351103   0.005226319    64.882135      62.706392      54.758211      3              222785.13      1.235108      -1276100.6      12666.091      8535.1603      888.54587          21924       36303       53175       13773 
    264000  -1299047.7      17823.305      298.02868     -1281224.4     -886.02695      64.296543      776.635        31.540906     -615.28627      0.0052661097   0.0041588404  -0.0087891491   0.00528       -78.693267     -3.1966034      62.343156      8.1371617      0.43136734     38.226292      0.0041502164  -0.0088280014   0.0052661097   64.860248      62.713108      54.76039       3              222742.69      1.2353433     -1276091.7      12535.347      8707.4084      894.39844          21924       36303       53175       13773 
    266000  -1299132.2      17793.467      297.52975     -1281338.7     -868.5405       397.32765      309.48458      981.10526     -98.606891      0.0053058988   0.0022461774  -0.0088725831   0.00532       -31.358368     -99.410332      9.9915016      20.222733     -12.191491      12.403208      0.0022436585  -0.0089121788   0.0053058988   64.736706      62.707829      54.762569      3              222308.56      1.2377558     -1276095.6      12635.418      8553.1913      872.90472          21924       36303       53175       13773 
    268000  -1298999.5      17946.192      300.08352     -1281053.3     -871.89425     -345.29714     -834.62495     -185.05434     -16.212121      0.0053456863   0.00028293258 -0.0082270714   0.00536        84.569771      18.752017      1.6440457     -28.434903     -1.0854634      22.568884      0.00028289256 -0.0082611005   0.0053456863   64.609897      62.74867       54.764748      3              222026.43      1.2393286     -1275972.4      12553.201      8632.1369      882.13897          21924       36303       53175       13773 
    270000  -1299133.2      17840.882      298.3226      -1281292.3     -795.54349     -122.25832     -220.21593     -439.92165      293.36261      0.0053854723  -0.0007161099  -0.0068151151   0.0054         22.311573      44.573232     -29.726802      8.5028306     -4.4017677      18.095816     -0.00071636643 -0.006838444    0.0053854723   64.545367      62.838004      54.766927      3              222129.29      1.2387547     -1276088.5      12497.231      8582.734       883.3165           21924       36303       53175       13773 
    272000  -1299063.4      17785.209      297.39167     -1281278.2     -927.30679     -580.35357     -419.33137     -278.1976      -1043.5317      0.0054252566  -0.0014123369  -0.005151973    0.00544        42.489653      28.189271      105.73674      4.6625838     -4.2987714      10.030836     -0.0014133352  -0.0051652902   0.0054252566   64.500396      62.943229      54.769106      3              222355.08      1.2374968     -1275984.5      12636.443      8530.3494      868.33387          21924       36303       53175       13773 
    274000  -1298974.3      17869.468      298.80059     -1281104.8     -855.44539     -503.89851     -938.86223      308.23898     -881.07227      0.0054650394  -0.0021007133  -0.0043397707   0.00548        95.132018     -31.230561      89.276389     -1.8361233      14.975875      17.285467     -0.0021029229  -0.0043492148   0.0054650394   64.455933      62.994617      54.771285      3              222392.06      1.2372911     -1275991.7      12578.395      8610.8123      893.15558          21924       36303       53175       13773 
    276000  -1299010.4      18036.448      301.59271     -1280974       -910.99737     -1068.4298     -463.16004     -639.51624     -2102.613       0.0055048206  -0.0019991932  -0.0037472554   0.00552        46.92696       64.796245      213.04456     -16.83303       5.5399027      5.2975682     -0.0020011942  -0.003754294    0.0055048206   64.46249       63.032105      54.773464      3              222555.89      1.2363802     -1276012.5      12688.183      8563.9876      874.6937           21924       36303       53175       13773 
    278000  -1299174.1      17895.151      299.23003     -1281278.9     -924.53694     -654.95017      143.05218     -1045.1316     -1062.7711      0.0055446003  -0.00037036711 -0.0043232531   0.00556       -14.494778      105.89794      107.68527     -11.828184     -1.8401115      20.190036     -0.00037043572 -0.0043326253   0.0055446003   64.567699      62.995662      54.775643      3              222799.1       1.2350306     -1275955        12539.148      8524.5955      872.68704          21924       36303       53175       13773 
    280000  -1299075.8      17862.488      298.68388     -1281213.3     -914.24026     -344.51603     -923.14408     -146.53374      36.129724      0.0055843783   0.0010139918  -0.0058857401   0.0056         93.538239      14.848188     -3.6601791      9.3171421      9.5106828      20.063297      0.0010134781  -0.0059031293   0.0055843783   64.657117      62.896805      54.777822      3              222766.39      1.2352119     -1276019.2      12671.533      8520.4688      901.602            21924       36303       53175       13773 
    282000  -1299043.8      17973.452      300.53933     -1281070.4     -845.61682     -315.97802     -970.14086      437.94348     -415.73667      0.0056241548   0.0017184387  -0.0085265685   0.00564        98.299775     -44.37437       42.124768      10.582617      4.1710298     -14.288552      0.0017169639  -0.0085631276   0.0056241548   64.702618      62.729722      54.780001      3              222339.82      1.2375818     -1276061.3      12734.257      8468.7055      887.85967          21924       36303       53175       13773 
    284000  -1299217.3      17897.433      299.2682      -1281319.8     -894.43701     -391.34317      191.12573     -1149.3493     -215.80591      0.0056639296   0.0024268531  -0.0099918476   0.00568       -19.367806      116.45582      21.864553     -9.4628519     -10.458685      11.770485      0.0024239131  -0.010042101    0.0056639296   64.748376      62.637015      54.78218       3              222177.07      1.2384883     -1276107.4      12581.223      8535.2486      887.78813          21924       36303       53175       13773 
[...]
   4938000  -1298703.9      17734.13       296.53756     -1280969.8     -729.735       -180.11744     -498.06985      931.30332     -973.58581      0.094182271   -0.029091792   -0.044102538    0.09876        50.465981     -94.365264      98.647631     -11.789185      8.6170641      123.73164     -0.029523349   -0.045104629    0.094182271    62.712536      60.478859      59.852505      3              227007.54      1.2121346     -1275913.8      12681.848      8612.9868      891.92888          21924       36303       53175       13773 
   4940000  -1298846        17888.96       299.12652     -1280957.1     -645.09732     -804.74055     -1030.8973      295.32988     -1678.6543      0.094218675   -0.027070771   -0.045566676    0.0988         104.45669     -29.923292      170.09067     -3.2432527     -39.673647      133.38118     -0.027443934   -0.046637493    0.094218675    62.843077      60.386224      59.854684      3              227139.91      1.2114282     -1276074.7      12691.879      8511.0994      911.58502          21924       36303       53175       13773 
   4942000  -1298509.5      17878.104      298.945       -1280631.4     -598.45198     -379.08697     -46.751401      125.83528     -1216.3448      0.094255078   -0.026630974   -0.045787325    0.09884        4.7373913     -12.749949      123.24644      7.8901472      4.1657223      146.59731     -0.026992003   -0.046868703    0.094255078    62.871484      60.372264      59.856863      3              227198.32      1.2111168     -1275922.1      12730.372      8586.3184      921.22053          21924       36303       53175       13773 
   4944000  -1298751.9      17762.999      297.02029     -1280988.9     -674.49813      191.73281      707.5604       653.00083     -785.3628       0.094291479   -0.026950439   -0.045280092    0.09888       -71.69472      -66.166496      79.575719     -0.44172263    -5.2318317      132.04901     -0.027320262   -0.046337271    0.094291479    62.850849      60.404356      59.859042      3              227252.76      1.2108267     -1276042.4      12766.656      8488.4721      891.68616          21924       36303       53175       13773 
   4946000  -1298772        17881.069      298.99457     -1280891       -610.19886     -412.84442     -458.67175      745.73085     -1525.5924      0.094327879   -0.026949208   -0.044635041    0.09892        46.476426     -75.559652      154.58215      26.353735      3.3379652      154.79411     -0.027318997   -0.045661856    0.094327879    62.850929      60.445168      59.861221      3              227414.87      1.2099636     -1276027.2      12652.572      8527.8295      882.01267          21924       36303       53175       13773 
   4948000  -1298685        18000.845      300.99737     -1280684.2     -471.25573      376.65057     -4.8918699      1105.5338      29.309829      0.094364278   -0.029122924   -0.043964639    0.09896        0.49563039    -112.01825     -2.9698558      7.3442634      0.26808615     161.12314     -0.029555414   -0.044960378    0.094364278    62.710525      60.487583      59.8634        3              227074.33      1.2117781     -1276040.9      12590.133      8568.1251      888.52896          21924       36303       53175       13773 
   4950000  -1298723.4      17659.707      295.29312     -1281063.7     -480.51771     -203.67479      995.38589     -29.587522     -1576.8228      0.094400675   -0.029979263   -0.041639       0.099         -100.85806      2.9973711      159.77099     -34.186182     -15.354459      100.41794     -0.030437829   -0.042530746    0.094400675    62.655212      60.634725      59.865579      3              227434.22      1.2098606     -1276043.6      12649.959      8502.8261      887.3872           21924       36303       53175       13773 
   4952000  -1298779.6      17946.485      300.08842     -1280833.1     -620.68879     -864.69006     -949.62463      33.51783      -1677.9634      0.094437071   -0.029185932   -0.040556765    0.09904        96.22246      -3.394449       170.02137      7.4151457      16.108253      165.05191     -0.029620314   -0.041402126    0.094437071    62.706455      60.703197      59.867758      3              227885.56      1.2074644     -1276092.3      12709.176      8528.2225      907.26384          21924       36303       53175       13773 
   4954000  -1298615.9      17884.378      299.0499      -1280731.5     -516.30591     -140.10264      554.21616     -70.548083     -903.976        0.094473466   -0.028493759   -0.041183819    0.09908       -56.156979      7.1472459      91.594319     -20.555827     -4.4583528      163.89807     -0.028907586   -0.042055901    0.094473466    62.751163      60.663524      59.869937      3              227907.29      1.2073493     -1275924.1      12679.457      8478.7524      895.56603          21924       36303       53175       13773 
   4956000  -1298617.6      17703.614      296.0273      -1280914       -516.73988     -893.45077     -54.080668     -685.87881     -1940.3928      0.09450986    -0.027937345   -0.040897179    0.09912        5.4797045      69.496651      196.61028      15.047542      3.2548416      134.29001     -0.028335017   -0.041756993    0.09450986     62.787103      60.681659      59.872116      3              228114.29      1.2062537     -1275943        12648.275      8505.7409      897.39658          21924       36303       53175       13773 
   4958000  -1298668.7      17849.999      298.47503     -1280818.7     -555.6447      -375.3809       704.32182     -621.8049      -1208.6596      0.094546252   -0.02820821    -0.040933968    0.09916       -71.364357      63.005443      122.46849      2.2930874      11.941764      132.72103     -0.028613706   -0.041795351    0.094546252    62.769607      60.679332      59.874294      3              228050.28      1.2065923     -1276031.2      12681.975      8559.0928      890.36357          21924       36303       53175       13773 
   4960000  -1298495.2      17845.515      298.40006     -1280649.7     -490.38184      435.5228       892.42301      727.83106     -313.68566      0.094582642   -0.029534581   -0.041853472    0.0992        -90.424283     -73.746991      31.78468       20.81359      -11.010739      137.31823     -0.029979509   -0.042754561    0.094582642    62.683935      60.621155      59.876473      3              227528.96      1.2093569     -1276045.7      12789.567      8533.0501      908.30406          21924       36303       53175       13773 
   4962000  -1298716.3      17759.477      296.9614      -1280956.8     -507.10234      69.083738      1288.559      -476.20819     -605.09955      0.094619032   -0.032361103   -0.041530204    0.09924       -130.56498      48.250046      61.309952      5.2618394      1.8123981      130.43216     -0.032896301   -0.042417228    0.094619032    62.501365      60.641608      59.878652      3              226951.07      1.2124363     -1276120.8      12745.787      8506.8472      886.42562          21924       36303       53175       13773 
   4964000  -1298814.5      17894.491      299.21901     -1280920       -639.08248     -1273.6944     -806.03423     -826.60252     -2188.4466      0.09465542    -0.033800868   -0.039884002    0.09928        81.673312      83.757443      221.74623     -19.266737      9.3680867      146.05989     -0.034385325   -0.04070117     0.09465542     62.408369      60.745762      59.880831      3              227010.86      1.2121169     -1276018.9      12606.401      8570.9119      872.77357          21924       36303       53175       13773 
   4966000  -1298580.7      17864.099      298.71081     -1280716.6     -566.61294     -1200.5835     -411.04652     -761.22025     -2429.4836      0.094691807   -0.033936318   -0.039822883    0.09932        41.648667      77.13002       246.1668      -13.50381      -8.1345798      121.54648     -0.034525523   -0.040637515    0.094691807    62.39962       60.749629      59.88301       3              227001.75      1.2121656     -1275951.6      12691.648      8563.1646      897.86976          21924       36303       53175       13773 
   4968000  -1298707.8      17824.682      298.05171     -1280883.1     -594.18871     -655.74254      137.15847      125.28445     -2229.6706      0.094728192   -0.033701673   -0.039663733    0.09936       -13.898183     -12.695035      225.92077     -9.3677176     -0.72736526     149.55598     -0.034282666   -0.040471778    0.094728192    62.414776      60.759698      59.885189      3              227102.78      1.2116263     -1276151.7      12824.691      8511.6351      911.58204          21924       36303       53175       13773 
   4970000  -1298716.7      17738.103      296.604       -1280978.6     -527.29822     -340.2474      -291.04829      44.850471     -774.54439      0.094764576   -0.033289449   -0.04067725     0.0994         29.490131     -4.5448067      78.480382      8.3740523      13.437644      136.5981      -0.033856155   -0.041527712    0.094764576    62.441402      60.695574      59.887368      3              226968.14      1.2123451     -1276122        12829.07       8449.1879      887.92882          21924       36303       53175       13773 
   4972000  -1298597.8      17820.223      297.97715     -1280777.6     -584.19766     -409.93193      158.5611      -579.52248     -808.8344       0.094800959   -0.033449339   -0.041915664    0.09944       -16.063959      58.722353      81.957374      3.6133714     -11.43013       132.03136     -0.034021564   -0.042819471    0.094800959    62.431075      60.617221      59.889547      3              226645.89      1.2140688     -1276040.7      12798.132      8561.6701      891.92957          21924       36303       53175       13773 
   4974000  -1298739.2      17887.858      299.10809     -1280851.4     -631.82757     -542.06938      265.85668     -502.98476     -1389.0801      0.094837341   -0.033705381   -0.042589139    0.09948       -26.940363      50.962467      140.74612      8.8805257     -13.794729      147.75305     -0.034286503   -0.043522658    0.094837341    62.414536      60.57461       59.891726      3              226434.82      1.2152005     -1276104.3      12681.898      8591.4014      926.0895           21924       36303       53175       13773 
   4976000  -1298854.1      17884.936      299.05923     -1280969.1     -588.04534      6.0486221      129.6003       902.84572     -1014.3002      0.094873721   -0.033563875   -0.041465771    0.09952       -13.131044     -91.480135      102.77467     -15.541673      0.92659117     113.90761     -0.034140072   -0.042350006    0.094873721    62.423676      60.645685      59.893905      3              226741.95      1.2135545     -1276082.3      12612.228      8541.8993      880.10648          21924       36303       53175       13773 
   4978000  -1298639.1      17901.819      299.34154     -1280737.3     -555.8106      -400.40483     -151.57808     -474.38401     -575.2524       0.0949101     -0.032598731   -0.039714369    0.09956        15.359434      48.067744      58.288234      8.6955059     -2.3313406      163.28567     -0.033141907   -0.040524507    0.0949101      62.486017      60.756495      59.896084      3              227391.37      1.2100886     -1275994.9      12713.081      8511.549       897.23644          21924       36303       53175       13773 
   4980000  -1298744        17756.737      296.91557     -1280987.3     -572.45589     -196.43444      978.27816      382.49909     -1950.0806      0.094946477   -0.032299453   -0.03852749     0.0996        -99.126178     -38.758874      197.58975      6.9531076      5.6818887      157.53654     -0.032832592   -0.039289305    0.094946477    62.505347      60.831588      59.898262      3              227751.13      1.2081771     -1276129.5      12706.162      8552.6309      903.12926          21924       36303       53175       13773 
   4982000  -1298710.2      17786.13       297.40707     -1280924       -574.59776     -612.01965      105.52739     -304.93283     -1636.6535      0.094982854   -0.033523008   -0.037927704    0.09964       -10.690381      30.899476      165.83608      14.708613      20.750323      149.81302     -0.034097786   -0.038665679    0.094982854    62.426316      60.869536      59.900441      3              227613.34      1.2089085     -1276062.7      12709.427      8531.5707      882.1425           21924       36303       53175       13773 
   4984000  -1298589.6      17833.348      298.19661     -1280756.2     -594.4122      -1202.369      -371.63401     -444.64992     -2790.8232      0.095019228   -0.035935774   -0.037256631    0.09968        37.655348      45.053686      282.77969     -6.3065506     -11.861545      138.73006     -0.036597362   -0.037968394    0.095019228    62.270472      60.911994      59.90262       3              227211.75      1.2110452     -1276015.6      12649.213      8656.678       893.46258          21924       36303       53175       13773 
   4986000  -1298743.2      17882.349      299.01598     -1280860.9     -590.87351     -1059.9721     -225.68944     -1154.5404     -1799.6865      0.095055602   -0.037596785   -0.036832154    0.09972        22.867768      116.98359      182.35302     -28.011134      12.769491      132.16051     -0.038321773   -0.037527587    0.095055602    62.163184      60.93885       59.904799      3              226928.54      1.2125566     -1276006.2      12707.826      8483.9891      883.48326          21924       36303       53175       13773 
   4988000  -1298674.1      17780.283      297.30931     -1280893.8     -689.14351     -1034.9407     -187.64929     -457.40951     -2459.7634      0.095091974   -0.036565092   -0.036129526    0.09976        19.0136        46.347055      249.23556     -7.5550863     -6.0951547      125.63455     -0.037250352   -0.036798356    0.095091974    62.229823      60.983305      59.906978      3              227345.8       1.2103312     -1276028.4      12806.585      8560.8442      883.15815          21924       36303       53175       13773 
   4990000  -1298618.6      17802.705      297.68422     -1280815.9     -628.19305     -1865.9246     -877.419       -1113.4689     -3606.886       0.095128345   -0.035038315   -0.037402636    0.0998         88.904885      112.82263      365.46812      0.70369574     23.811663      161.081       -0.035666883   -0.038120061    0.095128345    62.32844       60.902756      59.909157      3              227413.59      1.2099704     -1275912.3      12809.016      8438.0391      873.24202          21924       36303       53175       13773 
   4992000  -1298822.9      17953.138      300.19965     -1280869.8     -572.49669     -980.79566     -1077.9039     -1090.3318     -774.15127      0.095164715   -0.033530994   -0.03954304     0.09984        109.21701      110.47631      78.439325     -0.26209508    -10.14619       136.85163     -0.034106049   -0.040346108    0.095164715    62.4258        60.767335      59.911336      3              227270.63      1.2107315     -1276067.6      12703.474      8439.7436      900.29958          21924       36303       53175       13773 
   4994000  -1298732.9      17705.697      296.06212     -1281027.2     -594.63998     -870.60966      187.33519     -634.21107     -2164.9531      0.095201083   -0.031257907   -0.040940488    0.09988       -18.981624      64.261554      219.36399     -5.3686512     -7.2681277      142.02388     -0.03175686    -0.04180215     0.095201083    62.572623      60.678919      59.913515      3              227481.98      1.2096066     -1276002.8      12595.622      8575.3839      899.02266          21924       36303       53175       13773 
   4996000  -1298522.5      17838.763      298.28716     -1280683.7     -571.81235     -895.13963     -871.89908     -221.83914     -1591.6807      0.09523745    -0.02922128    -0.042062492    0.09992        88.346269      22.478951      161.27812      9.4539686      4.3353923      141.2561      -0.029656725   -0.042972734    0.09523745     62.704172      60.607931      59.915694      3              227701.81      1.2084388     -1276037.1      12841.891      8593.5458      891.46575          21924       36303       53175       13773 
   4998000  -1298645.1      17737.698      296.59723     -1280907.4     -624.40967     -455.18015     -228.50163     -25.120355     -1111.9185      0.095273816   -0.029178878   -0.043863627    0.09996        23.150541      2.5428903      112.66272      24.173173      10.79877       154.34699     -0.029613048   -0.044854726    0.095273816    62.706911      60.493974      59.917873      3              227291.87      1.2106183     -1275996.9      12665.514      8598.0199      907.015            21924       36303       53175       13773 
   5000000  -1298811.6      17879.627      298.97045     -1280931.9     -618.691       -780.91127      69.972548     -728.44923     -1684.2571      0.09531018    -0.030302721   -0.045990125    0.1           -7.0891857      73.810889      170.65812     -2.1434753      2.1161623      153.78111     -0.03077134    -0.047081257    0.09531018     62.63432       60.359433      59.920052      3              226532.07      1.2146788     -1276108.4      12648.529      8586.2007      891.87975          21924       36303       53175       13773 
Loop time of 107443 on 16 procs for 5000000 steps with 20064 atoms

Performance: 0.402 ns/day, 59.691 hours/ns, 46.536 timesteps/s, 933.704 katom-step/s
98.9% CPU use with 16 MPI tasks x no OpenMP threads

MPI task timing breakdown:
Section |  min time  |  avg time  |  max time  |%varavg| %total
---------------------------------------------------------------
Pair    | 63557      | 68944      | 73137      | 853.3 | 64.17
Bond    | 22985      | 23849      | 24849      | 355.0 | 22.20
Kspace  | 6047.1     | 11048      | 17291      |2572.1 | 10.28
Neigh   | 400.11     | 400.29     | 400.44     |   0.5 |  0.37
Comm    | 1500.3     | 1532.1     | 1561.3     |  54.8 |  1.43
Output  | 2.9629     | 2.9855     | 3.3213     |   5.0 |  0.00
Modify  | 1364.1     | 1463.2     | 1507.2     | 132.5 |  1.36
Other   |            | 204        |            |       |  0.19

Nlocal:           1254 ave        1309 max        1180 min
Histogram: 1 0 0 1 6 1 3 1 1 2
Nghost:        11764.6 ave       11858 max       11587 min
Histogram: 1 1 1 0 1 0 1 6 3 2
Neighs:         638253 ave      676894 max      580948 min
Histogram: 1 0 0 0 4 4 3 0 2 2

Total # of neighbors = 10212052
Ave neighs/atom = 508.97388
Ave special neighs/atom = 5.8041268
Neighbor list builds = 18471
Dangerous builds = 0

#-------------------Wrap up-------------------
write_restart   ${myid}.restart
write_restart   tensile_L10_rep_1_3_full_xld_erate_2e8_IFF-RX0.restart
System init for write_restart ...
PPPM initialization ...
  using 12-bit tables for long-range coulomb (../kspace.cpp:342)
  G vector (1/distance) = 0.17908615
  grid = 16 15 15
  stencil order = 5
  estimated absolute RMS force accuracy = 0.031235248
  estimated relative force accuracy = 9.406402e-05
  using double precision KISS FFT
  3d grid and FFT values/proc = 1521 256
Generated 45 of 45 mixed pair_coeff terms from sixthpower/sixthpower mixing rule
write_data      ${myid}.data
write_data      tensile_L10_rep_1_3_full_xld_erate_2e8_IFF-RX0.data
System init for write_data ...
PPPM initialization ...
  using 12-bit tables for long-range coulomb (../kspace.cpp:342)
  G vector (1/distance) = 0.17908615
  grid = 16 15 15
  stencil order = 5
  estimated absolute RMS force accuracy = 0.031235248
  estimated relative force accuracy = 9.406402e-05
  using double precision KISS FFT
  3d grid and FFT values/proc = 1521 256
Generated 45 of 45 mixed pair_coeff terms from sixthpower/sixthpower mixing rule
Total wall time: 29:50:43
