thermo_style   custom step temp press density etotal ke pe epair ebond eangle edihed eimp elong lx ly lz vol density v_eengxy v_eengxz                v_eengyz v_etruexy v_etruexz v_etrueyz v_sxx v_syy v_szz v_sxy v_sxz v_syz f_sxx_ave f_syy_ave f_szz_ave f_sxy_ave f_sxz_ave                f_syz_ave v_dir
dump           6 all atom 10000 dump.${myid} #every dump_freq
dump           6 all atom 10000 dump.shear_L10_rep_1_2_full_xld_erate_2e8_IFF-RX0_mmorse 
dump_modify    6 scale no sort id

#-------------------Run-------------------
timestep       ${mytimestep}
timestep       0.1
run            ${steps}
run            6000000
PPPM initialization ...
  using 12-bit tables for long-range coulomb (../kspace.cpp:342)
  G vector (1/distance) = 0.18362938
  grid = 18 16 15
  stencil order = 5
  estimated absolute RMS force accuracy = 0.024859324
  estimated relative force accuracy = 7.4863116e-05
  using double precision KISS FFT
  3d grid and FFT values/proc = 1690 320
Generated 45 of 45 mixed pair_coeff terms from sixthpower/sixthpower mixing rule
Neighbor list info ...
  update: every = 1 steps, delay = 0 steps, check = yes
  max neighbors/atom: 5000, page size: 100000
  master list distance cutoff = 14
  ghost atom cutoff = 14
  binsize = 7, bins = 10 9 8
  1 neighbor lists, perpetual/occasional/extra = 1 0 0
  (1) pair lj/class2/coul/long, perpetual
      attributes: half, newton on
      pair build: half/bin/newton/tri
      stencil: half/bin/3d/tri
      bin: standard
WARNING: Inconsistent image flags (../domain.cpp:815)
Per MPI rank memory allocation (min/avg/max) = 21.43 | 21.52 | 21.84 Mbytes
   Step          Temp          Press         Density         TotEng         KinEng         PotEng         E_pair         E_bond        E_angle        E_dihed        E_impro         E_long           Lx             Ly             Lz           Volume        Density        v_eengxy       v_eengxz       v_eengyz      v_etruexy      v_etruexz      v_etrueyz        v_sxx          v_syy          v_szz          v_sxy          v_sxz          v_syz        f_sxx_ave      f_syy_ave      f_szz_ave      f_sxy_ave      f_sxz_ave      f_syz_ave        v_dir     
         0   299.70114      178.50787      1.2366459     -1281020.3      17923.325     -1298943.6     -45068.453     -1275961.6      12654.047      8557.9703      874.42968     -27039.722      65.116357      62.931441      54.298524      222508.09      1.2366459      0              0              0              0              0              0             -47.680028      83.593637     -90.17554      -58.631569      14.70146       36.776701      0              0              0              0              0              0              2            
      2000   298.04626      624.91611      1.2385325     -1281332.2      17824.356     -1299156.6     -44991.965     -1276122.3      12568.357      8525.9107      863.40811     -27039.522      65.086474      62.889163      54.277169      222169.14      1.2385325      0.00030827139  4.0015719e-05 -0.00098055175  0.00030822389  4.0014918e-05 -0.00098103281 -62.717243     -129.13822      1.896592      -9.7012219     -14.105806     -46.277153     -0.7517281     -12.526942      6.2614099      19.516595      22.536214      11.278426      2            
      4000   297.25206      843.13468      1.238112      -1281254.7      17776.86      -1299031.6     -45106.936     -1276043.2      12731.72       8507.8141      878.97002     -27038.527      65.060954      62.909651      54.299208      222244.59      1.238112       0.00092348187  7.9998759e-05 -0.0024149854   0.00092305572  7.9995559e-05 -0.0024179062  -40.738658     -146.41195     -69.141252     -47.977269      42.533805     -21.229287      0.55747943    -1.0970962      9.0593637     -11.649274      0.89549808    -20.05298       2            
      6000   301.52847      611.9637       1.2373666     -1280903.7      18032.606     -1298936.3     -45037.553     -1276063.2      12767.234      8497.4993      899.73672     -27037.515      65.059678      62.972373      54.278868      222378.48      1.2373666      0.0024973122   0.00012004257 -0.0038326782   0.0024941991   0.00012003537 -0.0038400417  -64.548968     -63.251722     -58.220978      53.42036       36.684886      47.353119     -12.400679      26.557696     -22.721006     -23.19625      -6.5774784      5.9912833      2            
      8000   300.88192      518.55289      1.2349724     -1281096.6      17993.94      -1299090.6     -45008.278     -1276104.5      12666.694      8469.268       886.23521     -27038.798      65.131082      63.053709      54.254402      222809.61      1.2349724      0.0047760519   0.00016012651 -0.006713764    0.0047646827   0.00016011369 -0.0067364027  -42.791488     -94.077502     -20.758124     -67.446882     -8.7798676     -32.44337       30.500556      16.14919       45.317182      7.4952663      16.109233     -19.711001      2            
     10000   294.16144     -352.36564      1.2364134     -1281340.4      17592.028     -1298932.4     -45078.299     -1276034.6      12687.832      8585.8666      906.75467     -27037.624      65.149288      63.096671      54.139136      222549.92      1.2364134      0.0072013839   0.00020058175 -0.0083836517   0.0071755778   0.00020056164 -0.0084189921   82.442993      33.059042     -8.3916903      16.602235      51.179852     -13.131953      1.9366041      15.691387      2.1103107      2.0279345      19.553955     -24.626157      2            
     12000   299.49233     -194.38463      1.2364053     -1281227        17910.837     -1299137.8     -45123.819     -1276052.1      12668.472      8469.1543      900.43641     -27037.728      65.217968      63.083081      54.094128      222551.37      1.2364053      0.01038454     0.0002408983  -0.0084162899   0.010330991    0.00024086929 -0.0084519069  -2.5630193      39.578923      22.072163     -5.6509116      13.468287      20.168953      1.6674166      20.906847     -36.719714     -0.76346186     2.4631217     -15.801446      2            
     14000   300.69368      646.47717      1.2381591     -1281045.2      17982.683     -1299027.9     -45047.151     -1275960.3      12612.2        8484.9984      882.40469     -27037.104      65.241308      63.005428      54.064731      222236.14      1.2381591      0.013442443    0.00028120111 -0.0082948118   0.013352895    0.00028116158 -0.0083294052   54.579063     -98.764914     -152.32705     -55.812171     -51.480846     -30.831693      4.0256882      8.3184512     -10.992098     -6.365533      -2.9393996     -23.511547      2            
     16000   297.39934     -516.86665      1.2388969     -1281423.9      17785.668     -1299209.6     -45130.178     -1276084        12505.302      8591.5521      907.79793     -27038.961      65.266609      62.927658      54.078341      222103.79      1.2388969      0.016410661    0.00032129287 -0.0078902109   0.016277462    0.00032124126 -0.0079215034   62.636796      8.9170349      85.560709      56.666366     -43.186561      0.2013081     -1.2981022     -24.102413     -8.6600921      34.064379     -2.0081803      1.0602522      2            
     18000   301.06729     -360.99538      1.2391226     -1281174        18005.026     -1299179       -45086.756     -1276123.4      12596.365      8545.1084      889.67533     -27037.586      65.285151      62.862052      54.109547      222063.34      1.2391226      0.017057155    0.00036124752 -0.0073428212   0.016913315    0.00036118229 -0.0073699124  -10.148323      105.4279       14.453995      62.229988     -12.13525       26.31259      -17.115377      9.0743369      1.6085121      7.6927351     -4.3991238      5.5036087      2            
     20000   300.03008     -784.21816      1.2376994     -1281218.7      17942.997     -1299161.7     -45110.404     -1276042.8      12606.066      8506.619       878.83603     -27038.577      65.336313      62.851373      54.138544      222318.69      1.2376994      0.014972556    0.00040117313 -0.0066360896   0.014861574    0.00040109268 -0.0066582064   31.826614      140.59401      65.962094     -40.728044      29.308053      25.675262      42.376585      38.00834       15.021181     -5.8955217      32.988463      17.235262      2            
     22000   298.66248     -287.73054      1.2374978     -1281412.4      17861.209     -1299273.6     -45068.322     -1276096.6      12516.797      8510.9071      863.62922     -27036.45       65.366329      62.767931      54.194449      222354.91      1.2374978      0.012135823    0.00044083755 -0.005787157    0.012062775    0.00044074041 -0.0058039675   38.844271      55.608094     -6.9894749      10.357047     -18.253609      12.862491     -3.7276151     -3.9298736      0.81206134     27.768232      9.3042096      8.9495101      2            
     24000   299.44675     -449.50745      1.2345819     -1281091.5      17908.111     -1298999.6     -44984.743     -1276005.7      12700.126      8434.9057      855.77419     -27037.509      65.372053      62.709001      54.368738      222880.08      1.2345819      0.0085636272   0.00047937377 -0.0051221261   0.0085271673   0.0004792589  -0.0051352891  -9.7107477      53.559205      92.79057      -31.860855      2.0615696      33.047703      11.892162      14.579658     -10.908331      36.661025     -9.7035924     -13.530323      2            
     26000   297.27978     -740.20972      1.2311329     -1281180.8      17778.518     -1298959.3     -45067.504     -1276063.7      12703.685      8581.3475      886.87536     -27038.799      65.386484      62.740364      54.481767      223504.47      1.2311329      0.005434196    0.00051824746 -0.0036903988   0.0054194841   0.00051811321 -0.0036972251   51.066341      96.500669      77.438239     -31.876511     -4.5591418     -12.226226      16.236758      12.894896      14.331097      4.2663118     -4.3718195     -9.1169537      2            
     28000   298.86122     -280.52976      1.2317824     -1281206.2      17873.094     -1299079.3     -45077.102     -1276041.2      12579.589      8566.0314      893.37694     -27037.117      65.371945      62.743435      54.462486      223386.62      1.2317824      0.0036835573   0.0005583116  -0.0029476524   0.0036767896   0.0005581558  -0.0029520053   26.461765      7.270787       51.541481      30.843424     -19.952591     -17.230738      20.569233     -19.832978      9.3989473     -4.0141704      12.666101      3.1440403      2            
     30000   296.96679     -424.79609      1.2343921     -1281245.1      17759.799     -1299004.9     -45092.89      -1276076        12659.014      8617.3752      887.61636     -27038.684      65.30053       62.750602      54.400565      222914.34      1.2343921      0.0022758273   0.00059887282 -0.0023575569   0.0022732415   0.00059869357 -0.0023603403  -0.75090458     74.593471      55.284825     -54.165603     -35.612549      15.794856      3.8761832      4.2294208     -4.6904961      18.819715     -7.8587962      4.6408153      2            
     32000   294.95873      105.58031      1.2390379     -1281517.9      17639.71      -1299157.6     -45063.547     -1276067.2      12603.159      8482.9279      887.06086     -27037.886      65.132261      62.727022      54.357034      222078.53      1.2390379      0.00089182575  0.00063930885 -0.0026014948   0.00089142831  0.00063910458 -0.0026048846  -45.018058      45.162104     -32.237819      39.542856     -35.527686     -53.66543       3.6914148     -8.6074718     -17.853527      6.7253849     -2.5893524     -6.9686394      2            
     34000   300.50783     -124.2126       1.2416848     -1281189.4      17971.568     -1299160.9     -45082.902     -1276084.1      12587.083      8532.2964      886.73684     -27036.882      65.017303      62.718523      54.344426      221605.12      1.2416848     -0.00061387756  0.0006794239  -0.0021868707  -0.00061406606  0.0006791932  -0.0021892654  -8.575111       7.4267129      38.905924      45.465593      34.938322      13.476871     -26.993136     -38.803389      1.8985143      6.7804031     -16.185252      1.4257684      2            
     36000   296.75897     -563.08156      1.2397501     -1281259.2      17747.371     -1299006.6     -45088.16      -1275986.6      12667.326      8517.3045      883.48894     -27036.558      65.00039       62.800841      54.372033      221950.94      1.2397501     -0.0025855715   0.0007190255  -0.0016315623  -0.0025889199   0.00071876713 -0.0016328947   5.7408769      111.94744      53.474402      24.501496      95.635332      9.6716542      29.330947      5.4395303      15.638641     -13.040876     -4.8664099     -1.1011355      2            
     38000   296.98855      1219.9027      1.2382729     -1281342.4      17761.101     -1299103.5     -45063.91      -1276032        12622.89       8493.3784      876.18531     -27037.723      64.965184      62.841297      54.431331      222215.71      1.2382729     -0.004482533    0.00075814513 -0.0010349045  -0.0044926097   0.00075785788 -0.0010354403  -54.08043      -215.68026     -101.05925     -43.048247     -52.455051      76.772748      2.1212579      3.3796628      9.8105231      4.2880727      9.3358441      10.679824      2            
     40000   299.87667     -14.639254      1.2338654     -1281005.1      17933.822     -1298938.9     -45141.455     -1275970.4      12630.304      8619.8095      922.82002     -27037.829      65.062525      62.942425      54.456405      223009.5       1.2338654     -0.0061588509   0.00079767967 -0.0014025598  -0.0061778949   0.00079736169 -0.0014035444   18.575835      50.747996     -64.873864     -55.333032      52.661801     -5.7410945      10.149353      8.8400543      27.830209     -16.681696      4.8342589      7.7542997      2            
     42000   298.2492       184.12973      1.233533      -1281335.9      17836.493     -1299172.4     -44974.804     -1276037.6      12470.08       8486.1172      883.75862     -27037.425      65.138591      62.998544      54.359005      223069.59      1.233533      -0.0057623297   0.00083906349 -0.0020281107  -0.0057789959   0.00083871167 -0.0020301701  -95.120785     -25.615121      64.76507      -33.329012     -3.1187665      41.110782      34.035739     -5.7525262     -7.0952478     -25.800268      23.779416      12.944537      2            
     44000   298.90322     -134.65301      1.2363483     -1281108.7      17875.606     -1298984.3     -45089.495     -1276012.6      12639.333      8587.48        890.94454     -27037.255      65.138798      62.957759      54.270187      222561.64      1.2363483     -0.0037349509   0.00088045541 -0.0029618775  -0.0037419432   0.00088006804 -0.0029662725  -30.982058      75.521428     -3.6082222     -41.755023     -25.949337      16.490266      5.7825237     -12.668157     -48.269867     -9.8077376      6.820696       4.164655       2            
     46000   301.05027      767.50567      1.2392961     -1281030.6      18004.008     -1299034.6     -45087.513     -1276037.4      12785.67       8399.9139      904.73997     -27037.39       65.091009      62.902268      54.228645      222032.25      1.2392961     -0.00094263163  0.00092117783 -0.0040136557  -0.00094307619  0.0009207538  -0.0040217321  -62.928864     -129.04533     -41.328339     -10.553102      13.680602     -57.98858      -13.818842     -28.179796     -18.954895      21.814468     -8.4131593     -21.072516      2            
     48000   296.04925      679.93914      1.2372058     -1281323.2      17704.927     -1299028.1     -45048.055     -1276041        12740.166      8429.7835      890.95178     -27039.168      65.078837      63.021966      54.227234      222407.38      1.2372058      0.0022242595   0.00096125176 -0.0045613113   0.0022217895   0.00096079005 -0.0045717458  -130.4806      -16.70692      -59.496983      50.035243     -26.77441       19.907733     -4.9876411     -38.151439     -14.384486      1.3535117      7.0825285      12.409726      2            
     50000   298.23432      85.103293      1.234224      -1281245.8      17835.603     -1299081.4     -45044.121     -1276038.7      12627.393      8503.9578      870.07857     -27038.552      65.063424      63.147866      54.262719      222944.7       1.234224       0.0053135704   0.0010006458  -0.0052285229   0.0052995032   0.0010001455  -0.0052422395  -45.953269     -42.594504      62.6785       -17.38945       50.527304      4.746393      -10.765672     -39.063744     -24.594812      11.425892     -2.7889942     -9.1811601      2            
     52000   298.75566      313.42374      1.2332918     -1281062.2      17866.781     -1298928.9     -45091.811     -1275999.1      12755.907      8529.5238      876.55809     -27037.865      65.023649      63.236032      54.261195      223113.22      1.2332918      0.0067650662   0.0010406999  -0.0053992994   0.0067422858   0.0010401587  -0.0054139283  -108.23275     -2.875789       15.83556       42.247197     -1.8407116     -2.605586       8.5054428      9.4077671      26.017895      15.228391     -4.3543653     -11.044348      2            
     54000   298.3277       558.57435      1.236955      -1281316.7      17841.187     -1299157.9     -45051.415     -1276043.2      12489.282      8561.0618      886.35147     -27039.317      64.987612      63.18872       54.17103       222452.47      1.236955       0.0072384214   0.001082526   -0.0053308015   0.0072123498   0.0010819405  -0.0053450609   10.710814     -115.18008     -65.32337       35.503032      19.567487      26.056691     -18.861221     -26.116329     -16.81539       11.345729     -1.4916352     -10.882956      2            
     56000   299.73396      839.0351       1.2375682     -1281163.4      17925.287     -1299088.7     -44985.685     -1276062.1      12597.83       8459.1011      902.10221     -27038.618      64.958328      63.158478      54.194539      222342.26      1.2375682      0.0075773857   0.0011221268  -0.0062197428   0.0075488215   0.0011214976  -0.006239166   -121.11166     -89.499747     -44.434284      29.830333      7.9073581     -45.411847     -43.745441     -45.865261     -40.06387       13.559904     -6.2540288     -5.9445474      2            
     58000   298.39927      63.963136      1.2333358     -1281040.3      17845.468     -1298885.7     -45066.319     -1276025.6      12698.154      8595.2942      912.72965     -27036.757      64.99828       63.162675      54.343479      223105.27      1.2333358      0.0076386414   0.001159006   -0.0076317629   0.0076096147   0.0011583349  -0.0076610338  -22.582854      46.960147     -43.820486      1.1049113     -4.5838045     -16.878111      19.899017      29.095525      21.596132     -17.097137     -6.6946449      1.8039551      2            
     60000   297.84643     -139.72787      1.2343328     -1281336.9      17812.406     -1299149.3     -45112.797     -1276104.6      12728.797      8462.482       876.74086     -27038.517      64.937461      63.073365      54.427399      222925.06      1.2343328      0.0073464364   0.0011971151  -0.0084549966   0.0073195828   0.0011963992  -0.0084909428  -22.262925      43.556175      21.18053      -12.596049      15.688113     -44.656706      17.965731      6.1855819      34.547704     -12.279001      1.8145425     -10.510364      2            
     62000   298.47387      399.56738      1.2391605     -1281117.6      17849.929     -1298967.5     -45042.211     -1276094.4      12786.069      8489.8893      893.14849     -27036.966      64.829666      62.947288      54.414268      222056.56      1.2391605      0.0069449197   0.0012373191  -0.0082923769   0.0069209149   0.0012365543  -0.0083269499   2.3530234     -76.952065     -46.859452     -43.934686      57.016725     -14.629949     -1.0266704     -27.667093      38.864386      13.299851     -36.446403     -11.041819      2            
     64000   298.59914      650.18496      1.2403689     -1281390.2      17857.421     -1299247.6     -45085.594     -1276074.4      12531.134      8484.8683      896.37389     -27038.358      64.840733      62.930203      54.366734      221840.22      1.2403689      0.0052974498   0.0012783629  -0.0068952127   0.0052834677   0.0012775465  -0.0069190945  -95.054518     -72.794927     -29.790528     -16.26819      -17.295403     -20.00928      -45.105308     -59.700889     -21.025203     -12.952068      14.967264      1.8008258      2            
     66000   295.18462     -179.31297      1.2362463     -1281354.9      17653.219     -1299008.1     -45009.384     -1276072.1      12635.52       8539.8795      897.91263     -27037.947      64.979299      63.029693      54.345791      222579.99      1.2362463      0.0038558938   0.0013188355  -0.0048650875   0.0038484789   0.0013179666  -0.0048769606   51.026778     -9.1246198      12.604502     -51.019181      46.279704     -59.657658     -16.645317     -28.036659     -23.452886     -3.6989042      23.063362     -0.68223451     2            
     68000   299.4856       90.361674      1.2333937     -1281083.2      17910.434     -1298993.6     -45066.456     -1276100.7      12694.319      8571.3647      907.90607     -27038.004      65.071137      63.132032      54.306431      223094.79      1.2333937      0.0017760274   0.0013597972  -0.00239777     0.0017744521   0.0013588735  -0.0024006492  -25.048809     -26.210735      23.791855     -33.852904      51.544982      1.597192       1.5926763      8.6873761      6.5653553      9.6397843      9.4595999      0.39984112     2            
     70000   296.93477     -671.67182      1.2326062     -1281385.4      17757.885     -1299143.3     -45037.491     -1276145.2      12643.034      8523.1185      873.23163     -27037.809      65.123257      63.138027      54.292482      223237.33      1.2326062     -0.00044040258  0.0014001549  -4.3000722e-06 -0.00044049959  0.0013991756  -4.3000815e-06  49.978309      107.66576      46.527371      75.144228      1.9424899      17.965862      16.090798      32.529129     -20.54853       1.1817224      26.140491      13.181394      2            
     72000   294.30174     -733.358        1.2342319     -1281388.7      17600.419     -1298989.1     -45024.287     -1276057.1      12612.309      8586.6677      893.31014     -27037.254      65.122364      63.009952      54.331923      222943.28      1.2342319     -0.0023974657   0.00143911     0.0022788401  -0.0024003442   0.0014380755   0.0022762475   55.24138       78.009774      89.671343     -14.638155     -50.390863     -21.955297      10.859062      34.888573     -18.668796     -12.108322      22.432991      20.73861       2            
     74000   296.91042     -189.05681      1.2355537     -1281116.1      17756.428     -1298872.5     -44996.423     -1275903.2      12652.32       8480.8596      893.87378     -27037.372      65.151106      62.874846      54.366426      222704.77      1.2355537     -0.00318788     0.0014781385   0.0040186775  -0.0031929721   0.0014770471   0.0040106242   126.62776     -35.947519     -33.211697     -15.715973     -9.6692333     -28.879912     -24.467615     -3.0303022     -19.8614       -19.81494      -1.5348302     -18.083501      2            
     76000   298.83713     -305.77043      1.2361818     -1281306.7      17871.653     -1299178.4     -45045.388     -1276036.4      12559.051      8464.9057      879.42333     -27036.003      65.214559      62.785437      54.36324       222591.62      1.2361818     -0.0030460876   0.0015181685   0.0052442965  -0.0030507364   0.0015170172   0.0052305931   27.777438      17.864233      47.304897      15.633137      38.673423     -10.417718     -6.8608253     -39.923239     -47.911413      12.242422      14.406913      1.708767       2            
     78000   296.06329      46.965823      1.2369045     -1281407.8      17705.767     -1299113.5     -45014.362     -1276127        12655.643      8483.6849      888.44229     -27035.6        65.245639      62.697331      54.381909      222461.57      1.2369045     -0.0033091228   0.0015575779   0.0060783141  -0.00331461     0.0015563662   0.0060599157   25.879991     -27.477469     -12.678958      19.015909     -26.696224     -49.046855      25.823588     -0.24208717     2.8860961     -0.31411012     0.09740656     27.794569      2            
     80000   299.55402     -378.8969       1.2380138     -1281157.7      17914.526     -1299072.2     -45093.879     -1276071.5      12560.541      8636.2087      896.41346     -27038.4        65.27383       62.582949      54.408976      222262.23      1.2380138     -0.0042593008   0.0015967286   0.0052440223  -0.0042683975   0.0015954551   0.0052303203   77.529392      5.1483913      32.497403     -22.611184     -60.897788     -0.02777997    -21.446039     -25.147558     -16.546542      5.6679094     -9.2032125     -6.1486917      2            
     82000   298.85136     -378.32325      1.2366089     -1281278.1      17872.505     -1299150.6     -45035.994     -1276131.9      12610.945      8521.6379      884.68228     -27038.608      65.319611      62.569152      54.444613      222514.73      1.2366089     -0.0052289872   0.001635583    0.0042758522  -0.0052427062   0.0016342469   0.0042667367  -1.8354426      59.657555      57.178696     -82.693214      17.299086     -28.194855      20.779351     -16.348336      45.310556      9.8200556     -0.50191815    -5.1581616      2            
     84000   296.715       -457.4623       1.2352256     -1281541.2      17744.742     -1299285.9     -45088.12      -1276114.4      12550.16       8501.5775      864.86182     -27037.995      65.350283      62.622141      54.433902      222763.92      1.2352256     -0.0060508103   0.0016758141   0.002707115   -0.0060691907   0.0016744115   0.0027034574  -2.7443201      77.284532      64.51689       26.538437     -56.606342     -24.676135      81.111455     -6.9292681      15.085486      1.6368982      21.54817       17.171621      2            
     86000   297.92771     -145.16675      1.2352343     -1281294.2      17817.267     -1299111.5     -45036.808     -1276089.4      12599.199      8510.7219      904.82708     -27038.251      65.230005      62.745037      54.427079      222762.36      1.2352343     -0.0063399376   0.0017159357  -9.5683624e-05 -0.0063601204   0.0017144652  -9.5688202e-05  52.560133     -0.19717328    -8.2358956      8.3945313      0.26851007    -25.921803      18.728885      8.0749529      1.4036777     -15.405836     -0.93463508    -20.247989      2            
     88000   298.4154      -437.06888      1.2357128     -1281069.6      17846.432     -1298916       -45070.179     -1275882.8      12561.575      8585.5675      889.82534     -27038.137      65.157112      62.823622      54.398734      222676.09      1.2357128     -0.0050719218   0.0017567522  -0.0020848853  -0.0050848277   0.001755211   -0.0020870617   68.824915     -4.3421304      68.375227     -56.706155     -44.525795     -71.567215     -23.131831      22.210676      41.513992      9.3839462      14.552605     -5.3292308      2            
     90000   297.96838     -393.42547      1.2375952     -1281165        17819.698     -1298984.7     -45021.122     -1275924.6      12525.339      8562.8208      872.89112     -27037.831      65.154046      62.871359      54.277306      222337.4       1.2375952     -0.0030504045   0.0018006927  -0.0031764755  -0.0030550665   0.0017990734  -0.0031815312  -36.54296       19.964509      136.16996     -6.2010181     -1.5076598      18.581997      21.821233      3.7681083      30.92802       8.0353676     -0.20565934     15.41015       2            
     92000   297.43331      728.80261      1.2368108     -1281396.8      17787.699     -1299184.5     -45135.807     -1276078        12563.655      8586.8974      878.80111     -27036.295      65.174928      62.964651      54.213882      222478.41      1.2368108     -0.00095939131  0.0018428555  -0.0040585904  -0.00095985182  0.0018411595  -0.0040668488  -90.380628     -100.02505     -31.132094     -40.267232      30.115259      38.791571      47.027052      26.358352      7.9451243      5.7667626      2.4031416     -5.3070188      2            
     94000   300.54492     -725.40114      1.2365704     -1281058.1      17973.786     -1299031.9     -45056.86      -1276097.2      12647.395      8595.9414      878.85087     -27036.624      65.188017      63.001762      54.181602      222521.66      1.2365704      0.0016918343   0.0018840326  -0.0048422397   0.0016904047   0.0018822601  -0.0048540013  -12.35632       58.369047      174.49109     -19.242528     -26.459387     -31.481992      35.172558      48.28901       7.4593412      6.6167305     -0.94516975    -8.3369374      2            
     96000   298.52043      966.52984      1.2378359     -1281181.7      17852.713     -1299034.4     -45062.554     -1276061.9      12635.605      8558.8471      895.61933     -27038.113      65.165597      62.970952      54.171324      222294.18      1.2378359      0.0045487984   0.0019244756  -0.0056075594   0.0045384838   0.0019226262  -0.0056233408  -228.73906     -4.6375464     -60.4243        25.530148      69.667451     -73.770471     -40.463202      4.1509928      19.579102      4.2368628      9.4259056     -0.007557403    2            
     98000   298.11585     -133.67639      1.2369961     -1281255.6      17828.518     -1299084.1     -45081.091     -1276025.8      12594.862      8531.8968      895.97004     -27037.835      65.255106      62.937433      54.162571      222445.08      1.2369961      0.0060522372   0.0019648829  -0.0058982802   0.006033996    0.0019629551  -0.0059157437  -35.0664        43.642472      32.058209     -43.18733      -17.244479     -7.6194726      8.9257879      36.912185      39.174947     -15.298378     -13.517291     -11.796869      2            
    100000   296.70513     -487.2645       1.2371711     -1281317        17744.151     -1299061.1     -45139.537     -1276083.8      12779.746      8490.1602      892.28109     -27037.452      65.306937      62.887102      54.155241      222413.63      1.2371711      0.0076895326   0.0020052574  -0.0055842869   0.0076601189   0.0020032496  -0.0055999373   37.47635       19.327417      91.312461      47.43713       20.088584      43.324599      6.5495282      14.817812      8.3428898     -11.563952      1.6473018     -9.4742207      2            
    102000   296.95303     -26.12209       1.236946      -1281152.7      17758.976     -1298911.7     -45062.738     -1276007.3      12689.194      8571.9707      897.1783      -27036.874      65.270661      62.871156      54.208942      222454.09      1.236946       0.0087788488   0.0020433514  -0.0040471312   0.0087405387   0.0020412666  -0.004055343    73.155852     -39.866979     -25.34841       16.952995     -15.042058     -61.570103      7.985595      -44.276748      4.1584501      24.624236      20.737097     -27.835926      2            
    104000   297.80385     -402.69103      1.2358851     -1281109.7      17809.859     -1298919.5     -45155.314     -1275949.1      12773.021      8518.0069      893.88901     -27037.724      65.198011      62.936644      54.259419      222645.06      1.2358851      0.0090917718   0.0020814942  -0.0013050287   0.0090506905   0.0020793309  -0.001305881    100.76211      127.55011     -105.90421     -41.205852     -53.731203     -114.72339      9.1211908      13.179494     -7.1247678      6.6025821     -3.6733618     -12.933819      2            
    106000   298.19563      720.69221      1.2375502     -1281437.4      17833.289     -1299270.7     -45067.798     -1276152        12623.967      8403.6541      921.43391     -27037.632      65.046098      62.98606       54.270352      222345.49      1.2375502      0.0077788443   0.0021210891   0.0028030947   0.0077487451   0.0021188427   0.0027991734  -51.60611      -78.785688     -88.680615     -1.7701632     -27.663553      83.744646      19.619097     -17.210466     -19.836233      6.7194958     -0.54264509    -4.4769575      2            
    108000   298.42534      1074.2112      1.2369421     -1281119.7      17847.027     -1298966.7     -45070.678     -1276051        12698.932      8556.3389      899.72466     -27038.017      64.976114      63.043918      54.305628      222454.79      1.2369421      0.0067189071   0.0021596804   0.0056006047   0.0066964358   0.0021573516   0.0055849796  -59.682905     -168.91186     -97.93859       38.201588     -21.809858      71.609001     -30.937905     -22.015239     -13.45449       0.35807969     11.650525      28.285288      2            
    110000   298.35615      495.25301      1.2341609     -1281167.6      17842.889     -1299010.4     -44985.997     -1276015.9      12618.534      8477.5814      895.35064     -27038.877      65.073573      63.147725      54.257151      222956.1       1.2341609      0.0056291542   0.00220162     0.0070192937   0.0056133697   0.0021991999   0.0069947732  -98.909339      1.7415649     -53.376759     -41.004742     -87.771351     -26.583688     -21.526559      1.60698        18.845425     -9.5010599     -13.445528      13.461249      2            
    112000   296.42303     -253.03206      1.232301      -1281338        17727.281     -1299065.3     -45022.824     -1276045.6      12606.318      8511.0555      885.78609     -27039.498      65.195974      63.148864      54.236048      223292.61      1.232301       0.0042573436   0.0022425122   0.0075836543   0.0042483068   0.0022400015   0.0075550429   41.840637      97.566275     -62.491491      21.868718     -57.270501     -21.41379       8.3124657     -10.72994      -0.30990503     4.50278       -16.592319      4.9493009      2            
    114000   298.32105     -393.0742       1.2339195     -1280979.4      17840.79      -1298820.2     -45067.633     -1275905.6      12817.985      8452.1462      882.94243     -27038.278      65.232045      63.05889       54.212198      222999.73      1.2339195      0.0027786215   0.0022835576   0.0077806638   0.0027747682   0.0022809543   0.0077505506   0.88804763     42.428857      76.167827      64.101405     -10.394552      9.2914849      10.439787     -3.8257333      14.08383       12.999413     -1.7880967      11.883202      2            
    116000   296.38548     -367.17629      1.2368667     -1281234.2      17725.035     -1298959.3     -44937.606     -1276051.6      12615.951      8537.7651      876.2301      -27038.908      65.232623      62.982247      54.148356      222468.37      1.2368667      0.0011097181   0.0023263791   0.0066007122   0.0011091028   0.0023236773   0.0065790229   3.5354281      12.967496      95.109487      47.383579      69.220325     -37.486764     -1.3095094      1.2567345     -23.425827     -10.173946      13.692372      19.235878      2            
    118000   299.39393      161.55212      1.2387331     -1281264.8      17904.952     -1299169.8     -45079.171     -1276058.4      12592.547      8500.4747      874.81396     -27039.797      65.22683       62.944926      54.103632      222133.17      1.2387331      0.00042653494  0.0023684749   0.004300792    0.000426444    0.0023656744   0.00429157    -0.94039258    -42.914255     -5.2531569      4.4359612     -8.2087553     -67.404893     -29.182668     -1.9812002     -4.4752964     -1.0499027      0.16688818    -14.185561      2            
    120000   299.56741     -271.45715      1.2385367     -1281084.5      17915.327     -1298999.8     -45016.929     -1275941.8      12648.466      8422.9604      887.51198     -27038.247      65.254655      62.9815        54.057724      222168.38      1.2385367     -0.00011233973  0.0024106774   0.0026928683  -0.00011234604  0.0024077763   0.002689249    153.26554     -27.175782     -43.573572      46.445431      27.546081     -28.346025     -23.783012      19.626089     -3.0664599      7.3964318      3.4722075     -8.9261771      2            
    122000   299.16814     -733.54259      1.2357496     -1281078.1      17891.449     -1298969.6     -45078.7       -1275877.2      12603.878      8499.9097      882.53243     -27037.907      65.264681      63.03688       54.12373       222669.46      1.2357496     -0.0012110719   0.0024478741   0.00093524012 -0.0012118059   0.0024448829   0.00093480305  103.63405     -6.5783552      125.92292     -69.198391     -11.58946       21.688443      9.229883       21.387429     -32.734641      2.8895923     -3.7299472      10.297984      2            
    124000   297.91732     -157.86989      1.2329867     -1281297.3      17816.645     -1299114       -44968.107     -1276052.4      12559.328      8464.8968      882.34001     -27038.591      65.221768      63.022514      54.293079      223168.43      1.2329867     -0.0016846281   0.0024802431  -0.000643574   -0.0016860487   0.0024771724  -0.00064378118  16.197918     -20.8567        52.64728      -10.29121      -18.69986      -14.718543     -12.070878     -19.799683      20.514173     -7.7832913      36.055982     -1.5796405      2            
    126000   299.05519     -120.22674      1.2332037     -1281038.2      17884.694     -1298922.9     -45075.831     -1275938.5      12602.853      8594.7581      893.84528     -27038.823      65.181174      62.992077      54.343578      223129.16      1.2332037     -0.001035644    0.0025178986  -0.0023344077  -0.0010361807   0.002514734   -0.0023371367  -19.550895     -28.993254      85.090072     -8.1605905      52.168915      21.174361     -17.061034      35.492537     -0.29196935     7.6901683     -6.3749306      8.9590226      2            
    128000   302.18857      1180.1255      1.2376371     -1280869.3      18072.083     -1298941.4     -45067.025     -1275882.1      12599.067      8526.6465      882.06086     -27038.027      65.128018      62.837565      54.326362      222329.88      1.2376371     -0.00015791452  0.0025586649  -0.0037258214  -0.00015792699  0.002555397   -0.0037327795  -135.63063     -91.027977     -132.07005      32.819534     -34.620193      51.903202     -7.8002751     -19.648777      6.7703573     -10.833445      17.206297     -8.2146996      2            
    130000   299.53068      512.97106      1.2367779     -1281267.5      17913.13      -1299180.6     -45105.785     -1276043.3      12541.982      8544.5875      881.88037     -27039.141      65.135532      62.820315      54.372755      222484.32      1.2367779      0.0015362754   0.0025964144  -0.0048212099   0.0015350965   0.0025930495  -0.0048328695  -28.238953     -102.49016     -25.20126       55.827148     -19.063599     -49.279701     -3.0325137     -4.8540502      8.5479103     -7.6197215      19.21301      -17.866703      2            
    132000   296.77886     -809.21082      1.2360244     -1281420.5      17748.561     -1299169.1     -45068.583     -1276143.6      12550.215      8591.6634      901.22381     -27038.441      65.164977      62.84191       54.362634      222619.97      1.2360244      0.0031221063   0.0026368614  -0.0037995567   0.0031172427   0.002633391   -0.0038067934   103.60255      126.86864      15.50867       39.601052      10.216722      58.963799     -24.843284     -23.862819     -7.5095492      11.73829       8.135836      -28.876284      2            
    134000   299.96899      236.03201      1.2341589     -1281060.4      17939.343     -1298999.7     -45075.601     -1275954.8      12670.427      8470.4106      889.87674     -27039.237      65.227601      62.882813      54.357153      222956.47      1.2341589      0.0036732362   0.0026771004  -0.0013720653   0.0036665064   0.0026735234  -0.0013730074  -77.042909      37.789339     -32.49426       44.465636      31.523396      109.88815     -9.3759331     -28.904574      16.091401      22.390275     -15.104333     -13.017019      2            
    136000   298.00406     -1149.8458      1.2339862     -1281295.3      17821.833     -1299117.1     -45110.784     -1276061.1      12619.689      8562.9566      872.16854     -27038.657      65.341244      62.865729      54.284957      222987.67      1.2339862      0.0031584512   0.0027206722   0.00078886922  0.0031534737   0.0027169779   0.00078855822  147.3324       52.672621      149.51935      50.948897     -4.0789152     -12.911838     -14.052494     -5.0197109     -2.7330855     -5.1691016      8.9388348      17.39363       2            
    138000   299.60774     -1538.3483      1.2322258     -1281288.1      17917.739     -1299205.9     -45141.076     -1276069.2      12668.491      8471.1653      864.79401     -27037.785      65.518695      62.825839      54.249697      223306.24      1.2322258      0.002325961    0.0027624589   0.0036366507   0.0023232602   0.0027586503   0.0036300541   80.251878      192.64585      194.72171      42.95776      -31.375274      27.017962      16.670327      20.676379     -3.081722      -4.1850001     -0.53406609     13.02481       2            
    140000   296.06434     -1233.0334      1.2362168     -1281236.1      17705.829     -1298941.9     -45058.37      -1275892.3      12615.341      8515.6088      877.8132      -27038.046      65.595223      62.648649      54.16423       222585.31      1.2362168      0.0018744124   0.0028068707   0.0067690797   0.0018726579   0.0028029388   0.0067462724   83.21683       200.7223       90.872206     -46.134205      56.674963      35.074396      11.208084     -20.842924     -18.64695       14.300918      0.77111134    -12.083917      2            
    142000   300.74002     -883.54062      1.237636      -1281199.3      17985.454     -1299184.8     -45124.541     -1276030.3      12708.764      8397.8313      863.47676     -27039.144      65.611986      62.536482      54.185312      222330.07      1.237636       0.001329392    0.00284581     0.0090370019   0.0013285091   0.0028417683   0.0089964126   78.474992      87.576253      102.52301      24.849         55.62856      -8.6338696      23.340834      19.187247      26.291431      9.9782554      13.757407      24.557361      2            
    144000   294.34376     -620.65718      1.2406486     -1281440.5      17602.932     -1299043.4     -45075.601     -1276026.7      12572.144      8594.3244      892.44378     -27038.008      65.58923       62.393642      54.19628       221790.2       1.2406486      0.00045220071  0.0028852743   0.010229675    0.0004520985   0.0028811199   0.010177706   -22.39803       65.340762      145.72153     -25.969501     -18.677974     -5.1294871      11.47466      -8.6465785      15.273751      0.25665919     11.397857      24.055061      2            
    146000   300.11178      166.32317      1.2396811     -1281201        17947.882     -1299148.9     -45043.076     -1276022.3      12549.795      8467.9473      898.71556     -27038.061      65.610251      62.389247      54.225022      221963.31      1.2396811      0.00040996097  0.0029238024   0.010039834    0.00040987696  0.0029195364   0.0099897696   0.024828674   -20.687426     -29.895487      20.933467      46.140322      19.930556      25.92609       19.912246     -21.280746     -11.685634      39.781148      12.433358      2            
    148000   300.04914     -921.77161      1.2360464     -1281145.7      17944.136     -1299089.8     -45190.281     -1276014.6      12671.973      8547.1969      895.89874     -27037.61       65.564879      62.489224      54.335038      222616         1.2360464      0.0012710632   0.0029578747   0.0092881009   0.0012702561   0.0029535088   0.0092452317   74.144098      120.34447      85.706952     -7.1697248      6.7499632      17.172227      30.203601      42.937699      66.433777     -9.6524545      8.3504655      10.137034      2            
    150000   293.74751     -27.344958      1.2390303     -1281527.3      17567.274     -1299094.5     -45103.087     -1276044.1      12601.244      8547.289       904.10968     -27038.294      65.350725      62.517289      54.357402      222079.89      1.2390303      0.0020535617   0.0029966528   0.0077015019   0.002051456    0.0029921718   0.0076719967  -75.725972     -36.488517      120.52667      85.116967      44.578743     -68.899633      7.4039126      13.324091      35.859296     -0.64150794     7.2384821      11.626423      2            
    152000   295.82324      575.04899      1.242804      -1281373.4      17691.411     -1299064.8     -45113.341     -1276026.2      12555.041      8619.782       899.91745     -27038.103      65.131681      62.562801      54.335045      221405.55      1.242804       0.0027930127   0.0030379031   0.0054042836   0.0027891195   0.003033298    0.0053897329  -55.114635     -62.637841     -57.048042      60.731929     -46.873545      22.729586      0.69892337     6.9570493     -5.542093      -2.4782811      6.6054871      4.8704934      2            
    154000   296.93539      313.09715      1.2414556     -1281258.4      17757.922     -1299016.3     -45009.79      -1276031.4      12646.468      8496.9651      881.4198      -27037.784      65.03039       62.718718      54.343354      221646.03      1.2414556      0.0034467132   0.0030774457   0.0015882554   0.0034407869   0.00307272     0.0015869955  -98.251517      0.30452256     2.7732896     -40.706857      99.563276     -7.9221192     -34.714153     -46.566069     -36.667234      0.60061545     12.095743     -21.413741      2            
    156000   298.16731      581.26584      1.2351972     -1281160.8      17831.596     -1298992.4     -45006.939     -1276044.2      12672.325      8483.2627      903.16968     -27038.598      65.0632        62.925615      54.41166       222769.05      1.2351972      0.0037928081   0.0031135022  -0.00052234568  0.0037856335   0.0031086653  -0.00052248215 -60.329575     -61.83653      -54.524178      53.493901      21.667602     -99.513726      26.500764      7.8443206     -15.893001     -1.6639491     -14.867357     -1.7952984      2            
    158000   297.71987      951.15981      1.2345327     -1281419.4      17804.837     -1299224.2     -45019.984     -1276149.3      12668.114      8393.4604      883.49836     -27038.931      65.034365      62.967576      54.42879       222888.96      1.2345327      0.0041926828   0.0031524242  -0.0012393518   0.004183918    0.0031474657  -0.0012401204  -177.75894      4.3811129     -115.75097     -64.941726     -10.135149     -36.347769      17.121998      38.571706      30.861612     -17.584647     -26.011997     -6.2777337      2            
    160000   296.9615       232.21681      1.2370245     -1281152.6      17759.483     -1298912.1     -45021.584     -1276050.8      12707.748      8533.1819      919.43306     -27037.928      65.048024      62.887431      54.376956      222439.98      1.2370245      0.0050969012   0.0031953706  -0.0013363086   0.0050839559   0.0031902762  -0.0013372023  -114.71688      53.166156     -9.037381      -76.999578      18.763583      59.616489      10.663934      21.260522      50.095028      0.4295447     -9.2906069     -15.996258      2            
    162000   299.79445      384.29756      1.2387757     -1281214.6      17928.905     -1299143.5     -45096.328     -1276108.2      12652.907      8514.722       893.3783      -27038.311      65.075883      62.856078      54.303911      222125.52      1.2387757      0.0055615752   0.0032396622  -0.0017440001   0.0055461668   0.0032344258  -0.0017455227  -52.354744      0.24979237    -64.711897     -5.9142836     -33.080587     -14.27093       1.5906165      5.5664303      18.160461      16.797783      18.280243     -10.711727      2            
    164000   296.25553      622.5396       1.238954      -1281391.1      17717.263     -1299108.4     -45030.402     -1276154.9      12627.868      8534.4453      914.62559     -27038.127      65.116374      62.869186      54.251022      222093.56      1.238954       0.0054558838   0.0032828571  -0.0013383166   0.0054410544   0.0032774803  -0.001339213   -84.019522     -59.125183     -46.091769      3.6909219     -22.903153     -38.779275     -10.220674      11.802698     -32.806637      13.99954      -1.1345909     -1.2790454      2            
    166000   299.9231       827.99372      1.2385429     -1280947.7      17936.599     -1298884.3     -45076.947     -1275986.2      12701.077      8580.9215      896.84887     -27037.874      65.132724      62.881285      54.244965      222167.27      1.2385429      0.0045937246   0.0033232654   0.00049429542  0.0045832057   0.0033177555   0.00049417329 -75.861458     -81.569605     -94.258327     -4.3364379     -17.399217      18.784284      28.234875      3.6380105      12.59457       10.070853     -10.717408      5.3942923      2            
    168000   299.40341      112.57262      1.2364535     -1281178.8      17905.519     -1299084.3     -45031.1       -1276113.4      12599.88       8569.8246      890.5018      -27037.79       65.113148      62.995293      54.254598      222542.7       1.2364535      0.0031583563   0.0033626992   0.0022574296   0.0031533791   0.0033570579   0.0022548855   78.547003      43.347586     -156.11385      14.656247     -60.817579      7.8613166     -31.038516     -10.592373     -10.531872      5.7324382      16.784489      6.3102112      2            
    170000   297.76223     -123.91323      1.2361186     -1281310.9      17807.37      -1299118.2     -45129.407     -1276067.9      12640.761      8565.0242      873.31602     -27037.938      65.09316       63.095375      54.199856      222603         1.2361186      0.00073145443  0.0034061399   0.0046245939   0.00073118705  0.0034003522   0.0046139334  -68.678163      72.775103      33.569584     -57.721858     -30.714448      5.9136947     -21.067817     -31.947754     -33.095431     -2.3728504      34.381749      0.59820899     2            
    172000   299.8077      -269.70623      1.2376757     -1280949.4      17929.697     -1298879.1     -45070.126     -1275894.3      12671.388      8514.525       899.43228     -27036.666      65.064144      63.129478      54.12655       222322.94      1.2376757     -0.0020900579   0.0034508551   0.0059373843  -0.0020922452   0.0034449145   0.0059198275   49.291397      78.960446     -46.267893      51.522653     -63.653151     -11.495656     -31.013969     -11.780373      19.947244     -15.419475      11.128319     -18.732285      2            
    174000   297.50786      208.40882      1.2387941     -1281142.6      17792.158     -1298934.8     -45120.166     -1276041.9      12756.2        8598.7155      872.30321     -27038.038      65.103205      63.097467      54.072658      222122.22      1.2387941     -0.00351548     0.0034944265   0.0073815527  -0.0035216738   0.0034883352   0.0073544424  -14.542935      11.779984     -60.588119      63.73725      -81.051154     -71.245428      10.754562      3.1576266     -12.155086      9.3198252     -5.608122      -0.099281285    2            
    176000   297.88384     -166.78053      1.2385867     -1281389.8      17814.643     -1299204.4     -45167.281     -1276089        12638.962      8517.1397      895.75083     -27039.169      65.113753      63.029362      54.13138       222159.42      1.2385867     -0.0048452184   0.003530739    0.0080608768  -0.0048569945   0.0035245205   0.0080285615  -32.857026      38.905587      44.648551     -34.994679      73.952501     -17.57366       19.495578     -23.260673      15.568249     -2.224711       2.2302997      7.835048       2            
    178000   297.60992      578.45948      1.2415748     -1281128.1      17798.261     -1298926.3     -45067.656     -1275921.6      12522.6        8643.6802      896.65578     -27037.355      65.034128      62.939068      54.144783      221624.75      1.2415748     -0.0057845191   0.00357        0.0072079122  -0.0058013142   0.0035636426   0.0071820594  -73.366028     -44.861404     -57.60979       73.437515     -9.3272478     -51.119683     -16.408652      22.35048       2.1437242     -17.615417     -6.7980968      5.0222161      2            
    180000   300.18959      265.07916      1.2397737     -1281190.6      17952.536     -1299143.1     -45085.94      -1276101.4      12580.739      8575.2107      888.28785     -27037.745      65.105146      62.869015      54.224649      221946.72      1.2397737     -0.0052396469   0.0036048322   0.0055921422  -0.005253422    0.0035983504   0.0055765642  -55.733462     -44.017978      19.174002      12.927068     -31.920217     -94.490482      29.37964      -16.794524     -13.430388     -7.0599589      15.060391      1.7370673      2            
    182000   297.36618     -198.21641      1.2378056     -1281327.3      17783.685     -1299111       -45100.991     -1276037.4      12652.758      8489.749       884.87243     -27038.318      65.196488      62.82767       54.270467      222299.62      1.2378056     -0.004177792    0.0036418228   0.0048399279  -0.0041865434   0.0036352074   0.0048282531   20.10943       57.543655     -17.400253     -7.5446045     -0.18828625    -64.775433      12.135456      14.441557      11.493586     -4.2513393      6.9021458      11.143735      2            
    184000   301.81258     -395.17101      1.2357305     -1280929.5      18049.597     -1298979.1     -45055.847     -1276007.9      12736.553      8470.693       877.46651     -27037.037      65.332999      62.7902        54.280384      222672.9       1.2357305     -0.0020821679   0.0036811868   0.0037810804  -0.0020843386   0.0036744278   0.0037739501   20.323406      29.202669      70.596033     -13.936637      66.485843     -31.456262      29.410019      16.056307     -33.609934     -18.594901      6.0755141     -1.6592772      2            
    186000   298.72216     -230.9205       1.2350407     -1281169.6      17864.778     -1299034.4     -45014.498     -1275947        12622.75       8438.8954      865.48792     -27037.733      65.379025      62.764645      54.294563      222797.27      1.2350407      0.0012184126   0.0037202431   0.0024491001   0.001217671    0.0037133401   0.0024461059   39.11728       63.005925     -31.929146     -75.172327     -46.457649      45.262331      16.211909      27.659044      6.5321566      19.506636     -8.0473363     -5.1198149      2            
    188000   298.04854      272.32035      1.2363699     -1281304.7      17824.492     -1299129.2     -45134.661     -1275987.4      12533.55       8580.1408      879.17107     -27037.739      65.398315      62.704234      54.272435      222557.76      1.2363699      0.0043715681   0.0037617897   0.00020674354  0.0043620406   0.0037547318   0.00020672218 -7.4515007     -58.430054     -16.897024     -48.181228      5.8103142     -73.557594      7.3319539      21.736867      31.07833       4.8430489      26.32697       0.55150238     2            
    190000   299.45372     -97.426098      1.2357751     -1280938.9      17908.528     -1298847.5     -45023.963     -1275887.3      12596.15       8555.7437      911.9095      -27038.622      65.470025      62.701368      54.24156       222664.86      1.2357751      0.0067868751   0.0038039696  -0.001171205    0.006763948    0.0037967528  -0.0011718914   43.232113     -77.865034      64.248019      1.5055847     -25.658638     -38.675741      32.210819      1.8644837      21.499719      26.549117      15.987684      9.5085206      2            
    192000   299.93225      542.73605      1.2340041     -1281142.8      17937.146     -1299080       -45101.658     -1276000.5      12554.56       8570.6769      896.89272     -27038.748      65.470849      62.802857      54.230944      222984.43      1.2340041      0.0076620814   0.003844756   -0.0022817381   0.0076328767   0.0038373838  -0.0022843452   17.264728     -126.60181     -55.641113     -30.406387     -15.876017     -37.18261      -0.8894131      16.386441      8.7028131      2.4596587      29.374625      2.7325126      2            
    194000   298.21027     -865.62606      1.2329811     -1281245.2      17834.165     -1299079.3     -45221.836     -1275995.1      12646.342      8594.3072      897.01345     -27038.78       65.458274      62.908533      54.195175      223169.45      1.2329811      0.0079637388   0.0038873611  -0.0030442376   0.0079321956   0.0038798248  -0.0030488807   60.618317      80.996145      121.51422     -51.325222      0.43074762     58.116949      23.417672      19.735943      26.853552      3.2739783      10.870889      1.8288184      2            
    196000   299.38988      121.89535      1.2357227     -1281041.1      17904.71      -1298945.8     -45147.155     -1276024.6      12713.101      8617.5765      895.2979      -27037.407      65.383686      62.942182      54.10768       222674.3       1.2357227      0.0083787266   0.0039337734  -0.0040414266   0.0083438199   0.0039260563  -0.0040496152  -77.885746      22.58018       18.252426      38.553424      1.6491637     -48.249128      29.052726      9.2659508      2.6946072      1.2685509      4.9745304      4.6290051      2            
    198000   297.60381     -339.91976      1.2380805     -1281333.4      17797.896     -1299131.3     -45029.783     -1276042.3      12501.136      8540.5977      899.06877     -27037.252      65.267407      62.997009      54.053769      222250.26      1.2380805      0.008796582    0.0039778628  -0.0048305925   0.0087581175   0.003969972   -0.0048422975  -88.379659      81.020888      110.68588      17.878833      43.238785     -52.107619     -9.1727678     -12.990486     -22.898783      6.9146085     -13.368203      5.352797       2            
    200000   297.20709     -263.15551      1.2366378     -1281374.1      17774.171     -1299148.3     -45151.864     -1276049.4      12710.749      8444.0797      898.15845     -27038.197      65.167476      63.164057      54.056475      222509.54      1.2366378      0.0087454201   0.0040178311  -0.0053432668   0.0087074004   0.0040097812  -0.0053575931   9.455359       61.5863        8.951036       12.202483     -49.408038     -53.864236      29.404541      24.331606      2.7639136      23.637067     -11.784374     -22.287292      2            
    202000   298.50129     -308.7539       1.2404829     -1281081        17851.569     -1298932.6     -44992.114     -1276035.2      12672.422      8532.1882      890.11833     -27038.481      64.963745      63.216841      54.012777      221819.82      1.2404829      0.0080412204   0.0040613033  -0.0048002444   0.0080090621   0.0040530785  -0.0048118026   112.33917     -5.9953103     -12.490396     -3.4698804      63.736588      51.216123     -2.4500702      48.60211      -36.428867     -10.712385      1.2514057     -9.8438777      2            
    204000   298.05842      409.57913      1.2427168     -1281270        17825.083     -1299095       -45180.011     -1275953.1      12525.983      8623.7338      888.33015     -27037.753      64.801158      63.192606      54.07169       221421.08      1.2427168      0.008373004    0.0040970681  -0.0034505605   0.0083381448   0.0040886979  -0.0034565274  -96.467578      13.239826     -41.274064     -29.528298      53.47263      -31.604254     -36.536401      19.221315     -4.2610108      16.756325     -3.4105667      13.819069      2            
    206000   297.65019      78.913495      1.2392918     -1281464.9      17800.669     -1299265.6     -45092.329     -1276097.4      12527.473      8527.4604      869.22354     -27038.279      64.87117       63.135243      54.211818      222033.02      1.2392918      0.008235547    0.0041265585  -0.0018873129   0.00820182     0.0041180676  -0.0018890961   54.219216      9.4190167     -87.625963     -72.22741      -51.27134      -43.175461     -2.7898438     -0.94191322     2.3958245     -6.1752506     -4.8039093      3.1291047      2            
    208000   298.83505     -367.25296      1.2383446     -1281334.9      17871.529     -1299206.4     -45107.602     -1276108.6      12635.442      8510.7351      863.59764     -27037.392      64.888688      63.083882      54.282798      222202.85      1.2383446      0.0085291081   0.0041611811  -9.1483289e-05  0.0084929407   0.0041525473  -9.1487474e-05  49.792869     -15.170486      77.013336     -3.3658549      23.374644      20.991536      5.7215895      1.4005159      10.069339     -11.223648     -4.9455773      8.0596222      2            
    210000   299.64798      407.33638      1.2395411     -1281124.4      17920.145     -1299044.5     -45120.727     -1276013.7      12640.588      8555.3606      894.00332     -27038.555      64.892099      63.092357      54.220266      221988.36      1.2395411      0.009434298    0.0042060345   0.0011743401   0.009390073    0.0041972139   0.0011736511   47.309899     -73.538049     -97.591926      25.911547      33.435913      14.884831      5.0114359      9.9723618     -1.3278058      8.1459292      7.5789227      1.3485159      2            
    212000   298.48631     -374.08096      1.2385344     -1281484.6      17850.673     -1299335.3     -45114.3       -1276139        12608.128      8446.1412      863.7523      -27038.508      64.914237      63.186736      54.164804      222168.79      1.2385344      0.010527706    0.0042504265   0.002741295    0.010472675    0.0042414189   0.0027375445  -10.287083      82.803531      41.194813      96.403713      68.945953     -8.2958359     -0.39457023    -10.259035     -44.85915       6.8155502      6.9351839      2.964297       2            
    214000   297.53992      448.02922      1.2348619     -1281329.2      17794.075     -1299123.3     -45147.335     -1276054.7      12764.389      8426.8448      887.55232     -27038.387      64.966681      63.265297      54.214631      222829.53      1.2348619      0.010600046    0.0042865631   0.0040048293   0.01054426     0.0042774019   0.0039968313  -151.31698     -47.207217      62.334512      7.1981607     -16.847405      58.382132      0.21449798     20.029408     -0.91270574     3.9780567      24.843509      12.173263      2            
    216000   299.87311      42.93287       1.2371728     -1281188.4      17933.609     -1299122       -45041.525     -1275960.8      12591.457      8406.0503      882.8265      -27037.706      64.980169      63.141755      54.207991      222413.32      1.2371728      0.010383483    0.0043271272   0.0053368254   0.010329945    0.0043177921   0.0053226351  -86.300803      15.408755      57.841528      60.233053      63.16954       34.545098     -30.288038     -5.5641928     -9.6138921      2.9816547      24.660169      5.8553718      2            
    218000   298.78617      305.78403      1.2397384     -1281168.3      17868.606     -1299036.9     -45160.853     -1275986        12593.923      8625.4745      890.56456     -27038.161      65.022625      62.970978      54.207097      221953.03      1.2397384      0.0092624674   0.0043672346   0.0065057741   0.0092198339   0.0043577259   0.0064847029   59.15428      -64.723261     -87.381718     -66.192656      42.961408     -27.216269      32.989477     -19.073468      6.1969523     -1.1231648      8.3603725      13.179066      2            
    220000   296.66504      34.540715      1.2421115     -1281452.4      17741.754     -1299194.1     -45156.88      -1276085.1      12629.163      8535.8637      882.86102     -27037.241      65.047093      62.847135      54.189753      221528.98      1.2421115      0.0069938526   0.00440867     0.007803289    0.0069695091   0.0043989803   0.0077730008  -28.726823      54.164259     -35.93695      -11.360637     -1.2759351      57.887947      52.412639     -22.772684      7.1743263     -3.7551468      8.3235498      12.089459      2            
    222000   298.08308     -397.56386      1.2433355     -1281233.3      17826.558     -1299059.9     -45158.143     -1275873.7      12604.129      8489.4525      878.37995     -27035.832      65.024268      62.83023       54.16998       221310.9       1.2433355      0.0043716013   0.0044503363   0.0087688525   0.0043620736   0.0044404628   0.0087306294  -32.254053      67.341623      85.761905     -33.324831      60.529804      7.0907094     -8.2033914     -22.302045     -27.747898     -2.9090433      10.211898      5.9872983      2            
    224000   299.43063      85.712813      1.2415536     -1281164.2      17907.147     -1299071.3     -45117.459     -1276012        12652.144      8506.7834      899.24527     -27036.43       65.068234      62.849773      54.194215      221628.53      1.2415536      0.001807014    0.0044883435   0.010543557    0.0018053834   0.0044783009   0.010488361    83.988081      5.8641383     -115.90677      19.285477      37.027308     -6.2791501      9.4272815     -18.294746     -44.069508     -6.2225189     -2.2846008     -5.9809791      2            
    226000   296.79844      439.06324      1.2377709     -1281417.3      17749.732     -1299167.1     -45101.513     -1276053.7      12602.074      8517.6802      868.40323     -27037.125      65.146839      62.901653      54.249466      222305.84      1.2377709     -0.0012985429   0.0045237631   0.011383501   -0.0012993867   0.0045135617   0.011319196   -23.923767     -66.395952     -43.14453       40.840157      29.886006     -21.734186      28.475783     -9.4584892      1.8052802     -23.549458      17.307869      9.5028362      2            
    228000   296.60763      293.1976       1.2377281     -1281603        17738.32      -1299341.3     -45125.76      -1276104.9      12643.267      8379.9453      866.13961     -27036.878      65.114496      62.899468      54.280175      222313.53      1.2377281     -0.0036841112   0.0045612486   0.010684014   -0.0036909143   0.0045508776   0.010627343   -45.8753        37.780435     -81.029876     -32.117677     -22.523398     -22.913614      6.9328328      19.283231     -17.204198     -17.681457     -24.029577     -1.120333       2            
    230000   298.06986      211.39383      1.2387764     -1281278.2      17825.768     -1299103.9     -45135.63      -1276080.4      12720.568      8489.1829      902.36824     -27036.888      65.086767      62.782985      54.358011      222125.4       1.2387764     -0.0046918074   0.0045947245   0.009517508   -0.0047028484   0.004584201    0.0094725019  -66.676675     -73.765766      76.184003     -52.747507      4.8298445     -34.385649     -44.245197      2.9417268      4.1481949      5.6158212     -14.542244      8.0821877      2            
    232000   299.9413       244.95806      1.2401734     -1281048.2      17937.687     -1298985.8     -45083.617     -1276076.3      12694.779      8599.0994      880.16063     -27036.151      65.08024       62.670394      54.399781      221875.18      1.2401734     -0.0046383877   0.0046311947   0.0076288456  -0.0046491784   0.0046205037   0.0075998932   39.731366     -92.357083     -21.83541       13.830655      0.52394193    -30.400049     -31.000588     -12.899534     -8.9559899     -2.6641955     -8.3215222     -18.711116      2            
    234000   297.20767     -205.50878      1.2397748     -1281353.9      17774.205     -1299128.1     -45211.19      -1275999.4      12645.326      8554.3842      882.78544     -27038.258      65.113161      62.637768      54.418091      221946.53      1.2397748     -0.0031126619   0.0046695825   0.0065531916  -0.0031175163   0.0046587138   0.0065318128   64.941124      58.17319      -60.644784     -17.747685     -29.420841     -56.671254      39.23598      -10.511755      19.721262     -0.69363719     6.3663787      9.7117568      2            
    236000   297.94414     -629.62649      1.2419331     -1281312.7      17818.249     -1299130.9     -45109.155     -1276089.1      12668.008      8523.5391      875.77655     -27038.88       65.107633      62.630248      54.334652      221560.8       1.2419331     -0.00014387728  0.0047167748   0.004685022   -0.00014388763  0.0047056857   0.0046740814   95.256535      128.29177     -32.157589      80.338788     -20.800542      64.181258      35.389634      31.503956     -2.239226      -1.2714657      20.999867      17.72908       2            
    238000   299.50309      59.302689      1.2432102     -1281057.9      17911.48      -1298969.4     -45104.47      -1275930        12662.672      8526.6569      875.77661     -27037.604      65.097909      62.628382      54.288565      221333.21      1.2432102      0.0024765075   0.0047608262   0.0021648094   0.002473446    0.0047495293   0.0021624696  -24.522495     -53.105196      59.601156     -69.293919     -16.269585     -19.459426     -21.797297     -16.716618     -29.576728      6.6275751      17.680236     -16.888547      2            
    240000   295.20153      757.44104      1.2408294     -1281522.6      17654.23      -1299176.8     -45036.611     -1276011.2      12558.292      8436.923       875.72899     -27037.731      65.097301      62.723046      54.311142      221757.88      1.2408294      0.0049208387   0.0047988468   0.00069551412  0.0049087709   0.0047873691   0.00069527236 -72.236743     -103.87945     -54.126945      116.07612      50.702794     -3.4293851     -39.33503      -11.598441     -52.080262      2.1326968     -3.6102318     -6.2538424      2            
    242000   300.2109      -51.915669      1.2388376     -1281163.7      17953.811     -1299117.5     -45092.593     -1275961.8      12562.77       8491.569       882.47399     -27038.251      65.114951      62.793751      54.322486      222114.43      1.2388376      0.0062786702   0.0048378266  -0.00048937051  0.0062590415   0.004826162   -0.00048949029  91.129369     -19.027659     -56.320645      19.385093      15.787247     -10.514327     -22.54181      -10.922748     -5.8912617      1.6142895      21.897246     -10.333088      2            
    244000   299.66741      131.20329      1.2395463     -1281189.4      17921.307     -1299110.7     -45077.633     -1276015.8      12641.66       8453.2951      887.75645     -27038.652      65.065307      62.833838      54.298184      221987.43      1.2395463      0.0073352727   0.004879986   -0.0015061855   0.0073085004   0.0048681175  -0.001507321   -43.533762     -11.880329      15.53157       54.813291      6.1462568     -42.371837      0.35418797     4.9935883     -22.512803      6.580733       31.311122     -2.4073403      2            
    246000   295.66814     -90.766982      1.2406222     -1281450.8      17682.135     -1299132.9     -45144.231     -1276100.4      12669.198      8552.5233      890.05477     -27037.555      64.940759      62.873329      54.321004      221794.92      1.2406222      0.0075569374   0.0049179119  -0.0022084705   0.0075285268   0.0049058585  -0.0022109128   41.313192      2.7158502     -16.438148      55.006975      13.63077       56.520178      4.4621486      27.088513     -1.020824      -17.171392      7.4482178      7.8559168      2            
    248000   297.53181      26.337826      1.243458      -1281293.9      17793.59      -1299087.5     -45116.568     -1276029        12606.196      8547.316       904.56521     -27037.627      64.867653      62.824934      54.299994      221289.1       1.243458       0.0076119572   0.0049598109  -0.0023460621   0.0075831324   0.0049475516  -0.0023488184  -13.371712      3.2789183      2.0867528      24.306775      30.1477        17.637068     -0.45953012    -15.571364      7.8136245      16.107346      1.0113591      1.9359683      2            
    250000   296.8833       533.58178      1.2414586     -1281264.8      17754.807     -1299019.6     -45078.44      -1276125.5      12753.318      8533.5213      897.54086     -27039.285      64.976764      62.853108      54.271779      221645.48      1.2414586      0.0065759492   0.0050024128  -0.0019163108   0.0065544219   0.0049899423  -0.0019181493  -1.9413879     -158.05476     -2.1993766     -16.944385     -28.655551      47.598298     -16.924152     -6.7952967     -10.503371      6.4504467      25.552466     -20.661354      2            
    252000   302.05021     -70.56783       1.2370134     -1280953.7      18063.809     -1299017.5     -45040.626     -1275984.8      12625.235      8495.2308      887.4761      -27038.596      65.200073      62.932297      54.211954      222441.97      1.2370134      0.0050060207   0.0050480028  -0.00098605684  0.0049935322   0.0050353043  -0.00098654332 -4.461289      -61.88704       87.799185     -27.237428     -12.399257      15.098707     -0.12660344    -5.8255556     -1.1021538      18.520158      21.779962      2.6463935      2            
    254000   299.18076      131.78313      1.2358383     -1281178.3      17892.204     -1299070.5     -45074.476     -1276065        12714.329      8462.0043      892.71438     -27039.169      65.348454      63.005318      54.077546      222653.49      1.2358383      0.003170262    0.0051007137  -0.00041479006  0.0031652474   0.0050877492  -0.00041487611 -20.601305     -32.377997      12.920525     -4.563494       17.426402     -12.092391     -1.9670061      11.465413     -10.767956     -4.4095075     -12.171909     -3.7971671      2            
    256000   297.20746      559.98342      1.2346979     -1281283.9      17774.193     -1299058.1     -45043.653     -1276107.7      12667.096      8531.1963      894.99435     -27037.645      65.436192      63.06773       54.001424      222859.13      1.2346979      0.0016939575   0.0051481232   0.00016582114  0.0016925244   0.0051349169   0.0001658074  -27.685665     -66.395585     -76.139708     -48.34331      -23.03025       13.757756      1.9690045     -1.5174656     -52.185748      5.3947478      10.589791      14.225623      2            
    258000   300.39403     -218.00207      1.2345528     -1280974.3      17964.762     -1298939.1     -45107.147     -1275977.2      12593.574      8656.2789      895.39734     -27037.239      65.43965       63.06689       54.005638      222885.33      1.2345528      0.0015562417   0.0051879367  -0.00053947425  0.0015550321   0.0051745257  -0.00053961982  58.82744       67.445024     -60.005284      8.557         -1.5239591     -29.238037     -17.438816      5.1441065     -4.3925939      4.0656598     -5.3828799      9.5749762      2            
    260000   296.30967      68.19199       1.236154      -1281313.6      17720.501     -1299034.1     -45031.213     -1276109.2      12595.669      8624.3835      886.22888     -27037.084      65.414502      63.03139       53.986808      222596.63      1.236154       0.0011868214   0.0052299657  -0.002049174    0.0011861176   0.0052163369  -0.0020512764  -47.573486      3.4124324      23.432393     -47.123512     -0.69302044     11.797891      14.080513     -26.420416     -21.476691      23.019941     -4.0443882      11.325371      2            
    262000   298.5554       582.06914      1.2389091     -1281294.7      17854.805     -1299149.5     -45024.486     -1276089.7      12639.436      8437.4157      887.79891     -27037.69       65.271628      63.017617      53.996458      222101.61      1.2389091     -1.3668191e-05  0.0052692362  -0.0032870387  -1.3668285e-05  0.0052554024  -0.0032924529  -169.13562      4.863583      -12.662426     -9.9413359      92.652341      34.461194     -14.67625      -13.596706     -16.406606     -7.1716672      14.934103     -8.1838659      2            
    264000   297.66025      22.280842      1.2401087     -1281218.6      17801.271     -1299019.8     -45099.575     -1276101.4      12646.174      8639.9731      895.02423     -27039.601      65.17742       62.968495      54.06434       221886.76      1.2401087     -0.0011779579   0.00530279    -0.0034231066  -0.0011786522   0.0052887797  -0.0034289788   28.082046     -21.330294     -13.524571      129.55621     -26.571946      7.8023948     -54.006287     -10.401862     -26.394818     -9.7461784     -1.8338786     -4.648233       2            
    266000   295.83397      23.468062      1.2393887     -1281483.2      17692.052     -1299175.2     -45050.43      -1276157        12662.927      8477.1638      892.12634     -27037.983      65.129209      62.905345      54.19014       222015.66      1.2393887     -0.001891926    0.0053305592  -0.003400388   -0.0018937179   0.0053164021  -0.0034061825   16.895555     -1.0360188     -22.99324       19.236746      45.591197      49.726538     -41.70495      -0.45530063     6.7384167     -8.8143139     -1.8863929     -10.76341       2            
    268000   299.22212      499.37956      1.235964      -1281121.8      17894.677     -1299016.5     -45106.179     -1275975.9      12639.754      8539.773       886.05336     -27038.142      65.208689      62.879102      54.296711      222630.84      1.235964      -0.0019013746   0.0053600946  -0.0035209262  -0.0019031845   0.0053457804  -0.0035271393   15.516507     -103.43468     -63.880728     -43.053139     -19.082028     -28.711566     -2.4461418     -15.283394     -32.503779     -25.874153      8.2335606      10.219459      2            
    270000   295.80582      265.00236      1.2343372     -1281172.5      17690.369     -1298862.9     -44982.813     -1275991.7      12529.854      8678.4687      903.33299     -27037.895      65.274152      62.849559      54.339277      222924.26      1.2343372     -0.00033593577  0.0053958646  -0.0035076314  -0.00033599221  0.005381359   -0.0035137976  -6.6536616     -81.687118      7.7866876     -56.204253     -20.756181     -0.10106827     17.832986      13.662359      23.330969     -7.711036       17.90115       26.025068      2            
    272000   296.22048      886.19879      1.2363246     -1281564.6      17715.167     -1299279.8     -45025.4       -1276089        12366.868      8557.308       910.48741     -27039.159      65.270891      62.846886      54.256944      222565.9       1.2363246      0.0015806684   0.0054440826  -0.0034525689   0.0015794205   0.0054293171  -0.0034585428  -107.22885      14.12598      -176.2794       68.642018     -3.7517889      56.536842      31.739116      29.074859      25.131819     -19.962924      31.542369      4.7942841      2            
    274000   296.52709     -143.92601      1.2387494     -1281294.4      17733.504     -1299027.9     -45071.554     -1276124.4      12628.554      8638.688       900.74996     -27037.957      65.225342      62.842738      54.192132      222130.25      1.2387494      0.0038974725   0.0054906623  -0.0038440182   0.0038898971   0.0054756436  -0.0038514254   32.840209     -62.775397      73.685097      42.544231      36.092263      21.627705      13.828175      12.494589      12.381699      21.569196      19.984054      0.72406164     2            
    276000   298.18613      444.61532      1.2379144     -1281168.5      17832.721     -1299001.2     -44988.891     -1275992.3      12586.836      8506.119       887.0053      -27038.053      65.198896      62.828945      54.26259       222280.07      1.2379144      0.0052257796   0.0055235354  -0.0047777178   0.0052121726   0.0055083367  -0.0047891676  -43.58113      -47.005248     -44.565563      19.113345     -33.065124      50.644391     -6.8176134     -12.765964      7.7011111      10.400725      28.0711       -1.1545488      2            
    278000   295.57221     -336.38015      1.2342388     -1281510.3      17676.398     -1299186.7     -45027.305     -1276128.9      12557.95       8501.0894      910.48349     -27039.18       65.250069      62.821529      54.387924      222942.03      1.2342388      0.0069036218   0.0055506758  -0.0067525136   0.0068799009   0.0055353275  -0.0067754149  -7.7567347      67.033091      42.974798      21.939362      15.586572      6.862413      -23.070718     -6.9379758     -26.28758       2.3732342      7.4856148     -7.9652461      2            
[...]
   5940000   294.73887     -139.8236       1.2324887     -1281391.6      17626.561     -1299018.2     -44977.266     -1276151.9      12677.506      8517.2421      916.26654     -27037.429      65.115554      63.190289      54.259166      223258.6       1.2324887      0.019052725    0.11833048     0.0044530315   0.018873495    0.11183693     0.0044431461  -35.052469      71.175607      6.3797414     -34.726149      50.687308     -7.2820929      24.919671      10.603247      42.238749      1.6686432      90.080486      3.4434826      2            
   5942000   298.13216     -527.41705      1.2314424     -1281192.2      17829.493     -1299021.7     -44976.349     -1276012.9      12632.061      8460.8498      874.62004     -27039.281      65.188203      63.209984      54.227847      223448.3       1.2314424      0.020959993    0.11843782     0.0040554621   0.020743355    0.1119329      0.0040472609   95.599751      46.618587      18.103259     -9.0504088      154.4695      -19.734782      9.1766297      22.394654      32.132517      10.267329      65.573377      5.0683666      2            
   5944000   297.59033      220.06131      1.2343107     -1281059        17797.089     -1298856.1     -44998.748     -1276062.6      12835.855      8480.5252      888.83942     -27039.028      65.156622      63.17204       54.160564      222929.04      1.2343107      0.023878643    0.11862325     0.0033290352   0.023598007    0.11209869     0.0033235063  -38.525886      11.275405     -39.642655      51.958525      93.656881      24.896204     -0.62086814     0.45387896    -11.660654      4.1401547      80.457228     -5.8276426      2            
   5946000   299.16968      593.49444      1.2335932     -1280687.2      17891.541     -1298578.8     -44954.252     -1275961.4      12846.243      8587.0263      903.59533     -27038.024      65.114912      63.196968      54.205391      223058.7       1.2335932      0.025807051    0.11856555     0.0022616228   0.02547967     0.11204711     0.0022590692  -62.051632      37.201034     -155.55687      34.369792      80.384608     -36.308243      4.9849693      28.853442     -4.9036446      26.002482      61.311563      17.480532      2            
   5948000   298.74694      386.04331      1.2324324     -1281009.8      17866.259     -1298876       -44891.094     -1276035.6      12637.483      8526.6757      886.56543     -27038.6        65.130276      63.211902      54.230832      223268.81      1.2324324      0.026265703    0.11854964     0.00073103226  0.025926683    0.11203288     0.00073076518 -23.840811     -15.729672     -77.777031     -44.593318      126.40317     -109.23714     -17.067682     -8.7180887     -7.3728134      6.6754276      60.68545      -18.28361       2            
   5950000   297.50089      657.94236      1.2282191     -1281225.8      17791.741     -1299017.5     -44938.792     -1276098.9      12628.017      8498.9792      893.21089     -27037.828      65.204365      63.336104      54.248443      224034.7       1.2282191      0.027045054    0.1185507     -5.8636511e-05  0.0266858      0.11203383    -5.863823e-05  -70.599197     -64.294203     -65.10463       72.653515      59.137851     -21.816395      1.2478213      32.566815      23.14772      -5.5766512      62.101573     -16.391325      2            
   5952000   300.03793      313.06644      1.2277134     -1281059.8      17943.466     -1299003.3     -44860.758     -1276236.1      12705.595      8477.6254      910.33334     -27036.98       65.217524      63.407787      54.198499      224126.99      1.2277134      0.027703738    0.11869837    -0.0001252638   0.027326933    0.11216584    -0.00012527165 -43.402765     -43.174085     -8.5875221     -34.724347      111.43246     -63.498756      18.761799     -15.906144     -18.065507      32.580493      52.261786      1.233822       2            
   5954000   299.41534      723.47683      1.230191      -1281019        17906.233     -1298925.2     -44846.89      -1276049.4      12704.728      8392.8688      873.53768     -27037.693      65.114627      63.439542      54.147698      223675.59      1.230191       0.028200546    0.11884832     0.0001439271   0.027810231    0.11229987     0.00014391674 -85.367358     -104.86593     -29.685576      2.2776946      97.664453      36.241833      8.028055       4.7745224     -10.133859      11.301483      75.939053     -4.6747572      2            
   5956000   296.3507       509.90574      1.234902      -1281167.5      17722.955     -1298890.5     -44913.771     -1276085.8      12707.68       8532.1475      869.24517     -27038.223      64.900533      63.437837      54.120528      222822.3       1.234902       0.027627608    0.11894698     5.0370446e-05  0.027252853    0.11238804     5.0369177e-05 -20.439141     -124.12286     -10.436596      48.906335      59.460069      14.605983     -32.619761     -11.532118     -47.926174      9.6825802      35.912757     -3.9212702      2            
   5958000   297.32198      612.74532      1.2358121     -1281142.2      17781.042     -1298923.3     -44976.551     -1276018.8      12710.779      8482.9451      878.35712     -27037.118      64.685211      63.567616      54.149914      222658.2       1.2358121      0.025566108    0.11892252    -0.00034511271  0.025244761    0.11236619    -0.00034517228 -119.74748     -29.385233     -37.126543     -30.114827      39.401242      54.843225     -45.001731      42.610649      18.342636     -5.2712284      85.14895       7.8258332      2            
   5960000   298.24767     -46.194807      1.2343667     -1281169.4      17836.402     -1299005.8     -45067.845     -1276046.7      12663.071      8560.1964      885.53275     -27036.195      64.577158      63.673733      54.213535      222918.93      1.2343667      0.024079967    0.11882334    -0.0014563952   0.023794617    0.11227755    -0.0014574568   0.21163909     36.472787     -22.64236      -52.787719      70.547955      52.369461      2.4681199      20.702686      33.471992     -0.61924842     82.351594     -17.335708      2            
   5962000   297.85364      295.44415      1.2324361     -1281124        17812.837     -1298936.9     -44931.582     -1276070.7      12592.268      8599.0156      874.17347     -27037.829      64.48996       63.786432      54.275812      223268.14      1.2324361      0.022655171    0.11872785    -0.0014013973   0.022402354    0.11219219    -0.0014023801  -107.68773     -17.012685      34.89278       39.294347      113.77533      11.93113      -22.461285     -11.520319      5.533065      -1.6177369      55.003618      13.397894      2            
   5964000   298.87997     -954.10482      1.2299365     -1280975        17874.216     -1298849.2     -45014.248     -1276003.9      12664.16       8577.9547      926.84557     -27037.058      64.501405      63.898455      54.281134      223721.87      1.2299365      0.021234605    0.11875636    -9.7104081e-05  0.021012292    0.11221767    -9.7108796e-05  103.18481      101.04703      85.792173      5.309261       15.250897      4.7401859     -41.4956        49.743856      24.845897      5.8091055      72.545322     -4.6869266      2            
   5966000   298.0597       30.924212      1.2340444     -1281270.6      17825.16      -1299095.7     -44911.1       -1276120.5      12617.028      8441.3801      877.46685     -27038.259      64.600029      63.729547      54.161016      222977.14      1.2340444      0.019724086    0.1190572      0.0025262742   0.019532087    0.11248654     0.0025230885   58.392782     -49.970358     -17.822612      38.957523      112.97659      72.490818     -13.677468     -7.3112115     -24.276473      21.865367      42.057266      0.21588017     2            
   5968000   299.4564      -856.9899       1.2354973     -1281095.5      17908.688     -1299004.2     -45089.095     -1276028.1      12785.194      8442.3946      885.49424     -27039.035      64.72455       63.617242      54.088566      222714.93      1.2354973      0.019000051    0.11925454     0.0041783504   0.018821805    0.11266287     0.0041696454   99.903793      70.720316      89.879397     -1.2098316      0.1202833     -88.354965      4.0278656     -18.991856     -16.348814      7.9188416      61.942991      6.9768337      2            
   5970000   300.48505      39.373444      1.2360529     -1281004.4      17970.205     -1298974.6     -45019.917     -1276048.2      12492.279      8703.5079      897.73401     -27037.836      64.763682      63.581934      54.061592      222614.83      1.2360529      0.018490837    0.11935289     0.0048078008   0.01832196     0.11275074     0.0047962802  -20.315385     -47.876537      56.223379     -58.525116      103.45712      47.867241     -20.05936      -13.900929     -11.991586     -2.1868864      78.774617     -4.4861424      2            
   5972000   298.13104     -949.61384      1.2347849     -1281155.8      17829.426     -1298985.2     -45058.254     -1275995.5      12599.268      8587.7364      881.55447     -27038.259      64.746082      63.644385      54.078702      222843.44      1.2347849      0.018359141    0.11935498     0.0051017822   0.018192646    0.11275261     0.0050888122   49.373723      92.246021      147.03912      37.182214      53.098176     -0.72023533     5.3206397     -13.575545     -7.8617466     -12.461444      73.37772      -9.3603589      2            
   5974000   296.00864      581.92965      1.2370496     -1281439.2      17702.498     -1299141.7     -45012.241     -1276160.7      12588.887      8576.7643      865.57052     -27038.971      64.629489      63.699369      54.030401      222435.47      1.2370496      0.018285383    0.11950006     0.0056996769   0.018120216    0.11288221     0.0056834952  -107.49799     -76.110165      6.7160915     -120.92264      72.051628     -21.857705     -23.87661      -8.0028463     -32.990936      9.3079629      56.814803      3.8568209      2            
   5976000   299.25434      181.73772      1.2369631     -1281039.8      17896.604     -1298936.4     -45048.199     -1276136.2      12766.31       8583.4426      898.31164     -27038.861      64.577688      63.735729      54.046673      222451.03      1.2369631      0.018298112    0.11950408     0.0055883991   0.018132716    0.11288581     0.0055728419  -61.939377     -12.454282      19.149936      14.744271      32.92616      -6.8086726     -48.279239     -8.8547879     -38.347677      5.2909566      73.067839      23.490792      2            
   5978000   298.60867     -250.64963      1.2298701     -1281137.4      17857.991     -1298995.4     -44967.052     -1276140.2      12668.904      8568.5805      874.34248     -27038.639      64.721276      63.7728        54.206249      223733.96      1.2298701      0.019025985    0.11919539     0.0048875853   0.018847254    0.11261002     0.0048756798  -55.772646      37.551544      94.412325      15.254943      55.955738     -21.748314      18.988367      30.971582      25.872816     -16.703269      41.384405      13.54881       2            
   5980000   295.29607     -119.68029      1.2252037     -1281434.3      17659.884     -1299094.2     -44956.852     -1276058        12663.759      8380.1624      876.72984     -27037.822      64.937899      63.746435      54.253616      224586.08      1.2252037      0.020320927    0.11913213     0.0033726125   0.020117212    0.1125535      0.003366938    6.4352062     -0.051975753    29.996587      17.532791      82.194994     -28.398014      36.21605       3.6407763      22.31972      -0.085252126    64.872465      4.9732396      2            
   5982000   299.04267      371.09189      1.228958      -1281023.5      17883.945     -1298907.5     -44983.928     -1276110.1      12756.248      8542.9461      887.32277     -27037.644      64.921482      63.700396      54.140659      223900         1.228958       0.021028231    0.11941793     0.002153984    0.02081019     0.11280884     0.0021516675  -34.456515      6.1021444     -84.448287     -14.283978      21.575822      6.3815726      16.837181     -1.7237532      6.4148685      4.6824442      74.259121     -8.6531339      2            
   5984000   298.83172     -477.40211      1.2316316     -1281122.4      17871.33      -1298993.7     -44862.068     -1276107.1      12560.885      8520.1515      894.44758     -27036.307      64.879643      63.677958      54.077019      223413.97      1.2316316      0.021052488    0.11959673     0.0024546424   0.020833946    0.11296856     0.0024516346  -0.71691242     170.90959     -25.074375     -12.396559      5.6327329     -61.483431      2.4522216      12.993599     -19.015536     -2.9973096      64.892318     -14.639524      2            
   5986000   297.01837      144.96986      1.2290604     -1281362.8      17762.884     -1299125.7     -44975.988     -1276134.5      12591.671      8510.6735      882.42479     -27037.398      64.967562      63.666247      54.126769      223881.36      1.2290604      0.021376501    0.11952735     0.0035068396   0.021151228    0.11290658     0.003500705   -41.409702     -29.655975      26.998463      65.156917      14.537096     -8.716519       2.965054      -8.4502916     -17.855675      8.9449414      56.979475     -0.85319475     2            
   5988000   297.68697     -161.90986      1.2275913     -1280950.4      17802.869     -1298753.3     -44963.795     -1275878        12665.835      8529.4164      893.28153     -27037.509      65.031856      63.658885      54.144226      224149.27      1.2275913      0.020922286    0.11952863     0.0040304504   0.020706421    0.11290773     0.0040223499   56.734087      19.45145      -26.968989     -1.5748364      97.25109      -20.042993     -5.3901778      19.284178     -4.4151034     -5.2337376      46.844902      16.319844      2            
   5990000   297.82681     -817.02432      1.2294343     -1281099.2      17811.232     -1298910.4     -44879.556     -1276062.9      12641.127      8509.1217      881.791       -27036.913      65.045715      63.576255      54.121792      223813.26      1.2294343      0.020278333    0.11961707     0.0048063534   0.020075465    0.11298672     0.0047948398   48.693809      147.36359      52.297569      28.192543      90.51101       0.19460654    -31.875729      19.856102     -8.7649992     -12.518976      71.743123      20.925811      2            
   5992000   297.48973      391.75061      1.2336032     -1281276.7      17791.073     -1299067.7     -44934.473     -1276030.3      12428.776      8596.1888      872.07361     -27036.747      65.06993       63.445582      54.029873      223056.91      1.2336032      0.020068278    0.11985784     0.0059339926   0.019869565    0.11320175     0.0059164558  -34.044865     -94.014026      8.9764979     -4.3594015      104.95399     -53.391008     -10.599045      12.944919     -1.721631      -17.478247      83.979669     -19.625706      2            
   5994000   298.69371     -81.602879      1.2361345     -1281127.7      17863.076     -1298990.8     -45045.241     -1276085.4      12602.302      8652.9531      884.63276     -27037.513      65.12339       63.331935      53.971646      222600.13      1.2361345      0.020396528    0.12002458     0.0078316382   0.020191305    0.11335063     0.0078011301   12.441392      51.26436      -38.900517     -63.964665      64.053107      52.049613      7.6230731      1.8314752      14.708702     -14.459339      74.722969      0.16235928     2            
   5996000   297.25055     -244.32954      1.2376234     -1281211.4      17776.77      -1298988.1     -45044.255     -1276063        12600.086      8633.9785      885.06972     -27037.967      65.219005      63.206032      53.934909      222332.34      1.2376234      0.022957492    0.12014446     0.0092302151   0.022697934    0.11345766     0.009187877    46.118349      9.4113531      18.74037       18.077709      65.147442     -35.881266     -2.3320332     -10.309622     -28.208032      4.8905757      87.424695      3.9604138      2            
   5998000   296.14974     -390.48607      1.2376085     -1281363.3      17710.937     -1299074.3     -45081.705     -1276124.3      12688.956      8561.4456      881.35825     -27036.282      65.290583      63.111485      53.957139      222335.01      1.2376085      0.025962731    0.12013324     0.011650087    0.025631422    0.11344764     0.011582747    24.94018       5.0091363      88.748686      39.798509      95.080778      29.284662     -15.071708     -32.621344     -15.305683      3.7146419      89.737772      0.35912097     2            
   6000000   300.81577     -139.47253      1.2339716     -1281022.5      17989.984     -1299012.5     -45011.308     -1276063.1      12672.56       8515.6485      873.68905     -27037.474      65.38665       63.123223      54.026613      222990.31      1.2339716      0.028719152    0.12001875     0.012996396    0.028314486    0.11334542     0.012912668   -17.785014      13.163231      47.017945      10.774611      149.58155     -55.000804      5.8522634      17.881441     -7.2151741      0.97602309     61.864531      31.873247      2            
Loop time of 116052 on 16 procs for 6000000 steps with 20064 atoms

Performance: 0.447 ns/day, 53.728 hours/ns, 51.701 timesteps/s, 1.037 Matom-step/s
98.6% CPU use with 16 MPI tasks x no OpenMP threads

MPI task timing breakdown:
Section |  min time  |  avg time  |  max time  |%varavg| %total
---------------------------------------------------------------
Pair    | 77399      | 82142      | 86154      | 843.6 | 70.78
Bond    | 18646      | 19376      | 20266      | 300.2 | 16.70
Kspace  | 5993.5     | 10656      | 16036      |2675.4 |  9.18
Neigh   | 725.41     | 725.6      | 725.83     |   0.5 |  0.63
Comm    | 1387.5     | 1411       | 1437.8     |  50.6 |  1.22
Output  | 2.1184     | 2.1222     | 2.174      |   0.9 |  0.00
Modify  | 1444       | 1538.7     | 1578.4     | 134.7 |  1.33
Other   |            | 200.2      |            |       |  0.17

Nlocal:           1254 ave        1292 max        1191 min
Histogram: 1 0 1 1 2 2 1 4 3 1
Nghost:        11881.7 ave       11955 max       11734 min
Histogram: 1 1 1 0 1 1 2 1 4 4
Neighs:         648335 ave      675315 max      605491 min
Histogram: 1 0 2 1 2 1 1 1 5 2

Total # of neighbors = 10373364
Ave neighs/atom = 517.01376
Ave special neighs/atom = 5.8041268
Neighbor list builds = 22545
Dangerous builds = 0

#-------------------Wrap up-------------------
write_restart   ${myid}.restart
write_restart   shear_L10_rep_1_2_full_xld_erate_2e8_IFF-RX0_mmorse.restart
System init for write_restart ...
PPPM initialization ...
  using 12-bit tables for long-range coulomb (../kspace.cpp:342)
  G vector (1/distance) = 0.1838049
  grid = 18 18 16
  stencil order = 5
  estimated absolute RMS force accuracy = 0.02460287
  estimated relative force accuracy = 7.4090811e-05
  using double precision KISS FFT
  3d grid and FFT values/proc = 1820 360
Generated 45 of 45 mixed pair_coeff terms from sixthpower/sixthpower mixing rule
write_data      ${myid}.data
write_data      shear_L10_rep_1_2_full_xld_erate_2e8_IFF-RX0_mmorse.data
System init for write_data ...
PPPM initialization ...
  using 12-bit tables for long-range coulomb (../kspace.cpp:342)
  G vector (1/distance) = 0.1838049
  grid = 18 18 16
  stencil order = 5
  estimated absolute RMS force accuracy = 0.02460287
  estimated relative force accuracy = 7.4090811e-05
  using double precision KISS FFT
  3d grid and FFT values/proc = 1820 360
Generated 45 of 45 mixed pair_coeff terms from sixthpower/sixthpower mixing rule
Total wall time: 32:14:12
