thermo_style    custom step v_Time temp press etotal ke pe ebond eangle edihed eimp evdwl density lx ly lz vol v_sxx v_syy v_szz f_sxx_ave f_syy_ave f_szz_ave

dump            1 all custom 100000 dump.${myid} x y z type id fx fy fz c_ppa c_kpa c_pair c_bond c_angle c_dihedral c_improper #every 5 ps
dump            1 all custom 100000 dump.BulkM_EPON_862_rep_1_IFF x y z type id fx fy fz c_ppa c_kpa c_pair c_bond c_angle c_dihedral c_improper 

#-------------------1 atm pressure-------------------
fix             1 all npt temp 298 298 100 aniso 1.0 1.0 100 #x 1.0 1.0 1000 y 1.0 1.0 1000 z 1.0 1.0 1000
run             1000000 # 0.5ns
PPPM initialization ...
WARNING: System is not charge neutral, net charge = -38.166800 (../kspace.cpp:325)
  using 12-bit tables for long-range coulomb (../kspace.cpp:340)
  G vector (1/distance) = 0.16309445
  grid = 12 12 12
  stencil order = 5
  estimated absolute RMS force accuracy = 0.026587983
  estimated relative force accuracy = 8.006892e-05
  using double precision KISS FFT
  3d grid and FFT values/proc = 968 108
Neighbor list info ...
  update every 1 steps, delay 0 steps, check yes
  max neighbors/atom: 5000, page size: 100000
  master list distance cutoff = 14
  ghost atom cutoff = 14
  binsize = 7, bins = 9 9 9
  1 neighbor lists, perpetual/occasional/extra = 1 0 0
  (1) pair lj/class2/coul/long, perpetual
      attributes: half, newton on
      pair build: half/bin/newton
      stencil: half/bin/3d
      bin: standard
WARNING: Inconsistent image flags (../domain.cpp:814)
Per MPI rank memory allocation (min/avg/max) = 22.01 | 22.36 | 22.39 Mbytes
Step v_Time Temp Press TotEng KinEng PotEng E_bond E_angle E_dihed E_impro E_vdwl Density Lx Ly Lz Volume v_sxx v_syy v_szz f_sxx_ave f_syy_ave f_szz_ave 
       0            0    299.00615    631.92175    42922.952    18769.477    24153.476    10722.607    20347.941   -4130.3283    388.76269   -1761.4885    1.2052789    58.180249    58.104349    58.908058    199140.19   -59.881824    -67.74915    -64.45744            0            0            0 
    2000            1    295.47855    612.75454    42591.041    18548.039    24043.002    10557.498    20395.186   -4130.1979    398.65442     -1798.02     1.198988    58.574087     57.89179    59.034942    200185.05   -9.0518732   -67.377191     -109.833  -0.15858712  -0.15120612  -0.33944816 
    4000            2    296.61681   -754.05989    42785.052    18619.491    24165.561    10731.183    20270.751   -3992.9842    397.68911   -1817.8877    1.2021269     58.35977    57.874484    59.114694    199662.34      107.262    20.717646    101.23571  -0.21236148  -0.83061719  0.055094231 
    6000            3    298.10485   -1155.6003    42732.395    18712.899    24019.496    10681.327    20245.009   -4027.9696     381.3084   -1847.1369    1.2006051    58.706943    57.840154     58.87452    199915.42    104.34112    185.36124    61.571255  -0.87777941  0.054361144    1.3677791 
    8000            4    299.65077    507.32168    42789.999    18809.941    23980.058    10699.342    20274.421   -4201.3403    388.18877   -1783.6415    1.2010353    58.813912    57.662014    58.927884    199843.82   -45.048571   -2.1694786   -106.99506   0.22668189  -0.67210485  -0.45429796 
   10000            5    298.15927    331.37568    42778.673    18716.316    24062.357    10562.074     20369.46   -4081.5156    383.73726   -1809.7333     1.202421    58.328823    58.101799    58.900248     199613.5    22.539399   -82.816077   -40.453245 -0.088620742    0.2773627   0.16425459 
   12000            6    296.27256    276.41253    42656.629    18597.881    24058.748    10503.855    20483.254   -4096.5019      397.438   -1849.8875    1.2036126     58.45041    57.799336    59.026815    199415.89    54.163154   -24.721718   -113.46393  -0.27604608   -1.0666536  -0.18527226 
   14000            7    297.40818   -9.4629569    42798.009    18669.168    24128.841    10552.333    20485.773   -4144.9872    386.26976   -1791.7482    1.1961591    58.468312    57.902439    59.270709    200658.49    114.05165   -1.7434857   -109.43166  -0.40309032    0.4031811   0.58039401 
   16000            8    297.16736   -1752.9246    42659.903    18654.051    24005.852    10531.466    20424.793   -3916.2035    386.15492   -2003.7721    1.1990501    58.510262    57.708611    59.283862    200174.69    239.84678    194.32684    98.671644   0.20372058  -0.77769249  -0.25575129 
   18000            9    295.25481   -976.33181    42412.713    18533.994    23878.718    10569.886    20265.157   -4002.1019    379.77855   -1923.7922    1.1999956    58.686314    57.714213    59.053716    200016.97    138.66862    84.075585    74.036256   0.20867839   0.18594011   -0.3669407 
   20000           10    298.69182   -905.57559    42857.791    18749.745    24108.046    10550.993    20381.239    -4048.727    406.14794   -1796.0207    1.2003711    58.681823    57.698927    59.055402     199954.4     74.04338    181.96831     19.26065   -0.1169531   -0.3307751   0.49751766 
   22000           11    299.27828   -79.342864    42695.421    18786.559    23908.862    10392.216    20332.705   -4062.4169     405.7003   -1781.4069    1.2012237     58.41564    57.684258    59.297465    199812.47   -87.321054    39.575294    71.864007  -0.66003478   0.47883989  -0.19671609 
   24000           12    296.03082    656.64343    42359.331    18582.707    23776.624    10348.786    20353.735   -4063.6047    395.54664   -1851.5023    1.2055137     58.44653    57.477034    59.268134    199101.41    28.198337   -138.49576   -89.305761  -0.30169292  -0.33575775  0.061830407 
   26000           13    299.09253   -814.84803    42655.796    18774.899    23880.897    10405.077     20352.44    -4001.305    390.15205   -1887.7638     1.203645    58.621342    57.739696    58.913903    199410.51    146.01523    15.443114    86.235091  -0.14851165  -0.18801224 -0.034914676 
   28000           14    299.32143   -269.37942    42640.406    18789.268    23851.138    10466.823    20335.955   -4043.1127    398.07847   -1911.5656    1.2048084    58.734541    57.578277    58.908265    199217.96    36.514057    70.687306   -25.316755  -0.15822136   -0.0445692  -0.49124782 
   30000           15    300.14828   -303.58153    43001.247    18841.172    24160.076      10653.5    20455.131   -4074.6787    409.37785   -1880.8407    1.2036499    58.391208     57.82807    59.055471    199409.71     10.08269    53.682768    28.515739  -0.13040468  -0.55640099 -0.071971195 
   32000           16    298.15582   -192.74087    42615.861    18716.099    23899.762    10479.714    20339.678   -4113.7428    389.47714   -1822.6708    1.2027713    58.804092    57.687021     58.82714    199555.36    33.093849     82.60277   -57.108214  -0.32361457  -0.47861527   0.49425877 
   34000           17    296.88811     -260.892    42602.441    18636.521     23965.92    10437.831    20389.794   -4059.4835    378.00667   -1779.0349    1.1993152    58.617271    57.562603     59.31262    200130.43    62.657492    33.354736   -16.707583  -0.40542718   0.61036135  0.036270335 
   36000           18    294.74298    336.86908    42389.021    18501.866    23887.155    10495.409    20319.713   -4083.0287     376.1939   -1818.0056    1.2047413    58.568653    57.775653     58.87658    199229.06    25.733451   -15.205992   -112.92724   0.15816259  -0.78722489  -0.56271053 
   38000           19    296.93566    361.00595    42785.681    18639.506    24146.175    10555.383    20569.712   -4155.1072    394.59824   -1840.9082    1.1975732    58.738036    57.725661    59.109337    200421.55   -21.841468   -14.853679   -73.041637  -0.73728567   0.30688182  0.092891932 
   40000           20    299.05262   -423.78188    42750.718    18772.394    23978.324    10472.889    20404.972   -3988.5777    415.23304   -1928.0904    1.2023563    58.452112    57.561858    59.330536    199624.24    38.524177    34.756993    55.537928   0.16634415   0.10591043   0.63688007 
   42000           21    299.21261   -173.32438    42768.279    18782.437    23985.842    10546.288    20441.763   -4104.7767    402.62567   -1913.4406    1.2049138    58.606588    57.632749    58.975918    199200.53   -17.748544    -19.16785    89.602672  -0.43651025  -0.77639174  -0.51368316 
   44000           22    297.27557    422.78376    42693.126    18660.843    24032.283    10519.196    20507.342   -4104.5108    389.88438   -1861.0278    1.2034747    58.540429    57.636458    59.109371    199438.74    20.072341    21.047649   -169.63568  -0.95162198   0.87726926  -0.28970136 
   46000           23    297.29222   -398.09118    42555.647    18661.888    23893.759    10537.693     20298.41   -4119.1739    395.98171   -1816.8531     1.200022    58.230517    57.860573    59.364099    200012.55    80.601427   -43.267061      83.6754  -0.63083968    -0.208819   0.19464439 
   48000           24    300.83221   -155.22537    42953.015    18884.104    24068.911    10631.067      20482.5   -4201.8325    391.51185     -1832.86    1.2001744    58.551133    57.813004    59.080105    199987.16    18.874201   -11.875105    40.185534   0.85374828   0.31976804  0.021365701 
   50000           25     295.6734    56.882664    42485.797     18560.27    23925.526    10592.909    20414.425   -4195.7385    389.77586   -1901.5943    1.2002636    58.681349    57.695702    59.064467     199972.3   -4.0139452    8.9923995   -22.269362   -1.4766772 -0.037954946   0.46747044 
   52000           26    297.91765   -301.55222    42798.285    18701.148    24097.137    10660.523    20365.279   -4078.8933    378.40288   -1866.8007    1.1997071    58.387543    57.620848    59.466366    200065.05    30.977533    47.790997    12.895805    1.0320098     0.218257  -0.43198278 
   54000           27    296.36201   -598.25416    42715.489    18603.496    24111.993    10570.323    20341.986    -3970.325    390.28269   -1840.0528    1.2001459    58.742045    57.446538    59.265167    199991.92    113.62321    63.340432    4.8906641  -0.29621103   0.10640133  -0.12371247 
   56000           28     297.9853   -919.69668    42814.359    18705.395    24108.964     10411.84     20564.11   -4025.7482    381.24086   -1834.7106    1.2038962    58.486549    57.587523    59.193365     199368.9    28.768823    69.485631    181.31034  -0.14232966  0.087617046 0.0091783097 
   58000           29    298.25633   -215.14005    42616.402    18722.409    23893.993    10417.858    20366.679   -4055.6756    393.07704   -1834.8226    1.2002994    58.689162    57.622568    59.129794    199966.33    75.439289    39.430484   -49.472578   0.03688566   -1.3705979   -1.0092517 
   60000           30    301.62834   -340.41851    42936.957    18934.079    24002.877    10557.311    20315.441   -3982.3124    410.34254   -1904.5724    1.1997076    58.529001     57.72523    59.215346    200064.97    16.234063    57.021308    30.223346  -0.59598198   0.36045481   0.02465927 
   62000           31     298.6268    372.25288    42785.164    18745.664    24039.499    10528.988    20349.812   -4077.4908    412.08809   -1815.6855    1.2002299    58.623248    57.520879    59.304365    199977.92   -115.59295   -37.543377    39.980759  0.079868333   0.66113945    0.4119367 
   64000           32     296.5069    261.59901     42635.63    18612.592    24023.039    10516.554    20487.307   -4206.5359    367.98351   -1766.0174    1.2006537    58.648581     57.31979     59.46571    199907.32   -41.710044   -30.678102   -7.1314129  -0.33134107  0.060940965   0.32231137 
   66000           33     299.8065   -317.50729    42859.768    18819.717    24040.051    10643.763    20432.102   -4201.2165    357.36737    -1817.558    1.1963156    58.525442    57.993557    59.112083    200632.24    91.212206    9.3693002   -4.0672285  -0.34387504   -1.5453325    -1.164049 
   68000           34    299.78646    160.30369    42946.168    18818.459    24127.709    10612.596    20345.389   -4027.5435    383.29619   -1811.7913    1.1982955    58.740859    57.822135    58.972308    200300.73    55.493214   -107.46074    3.2392075  -0.85600125    1.1385078   0.35956619 
   70000           35    297.37775    785.98819    42743.803    18667.258    24076.545    10618.456     20460.13   -4317.7114    385.88717   -1696.4446    1.1975739    58.696962    57.717733    59.158788    200421.43   -25.197749   -29.073278   -184.64973   0.78766845   -1.2834167   0.07465377 
   72000           36    297.34044    690.29359    42712.785    18664.916    24047.869    10632.108    20329.642   -4244.1224    391.04162   -1709.0078       1.1968    58.438184    57.592078    59.588908    200551.02   -63.000281   -87.316738   -59.514975  -0.17362803   0.44591885  -0.93415739 
   74000           37    297.44029    595.27767    42730.892    18671.183    24059.709    10502.448    20420.094   -4098.3655    389.70637   -1754.1239    1.2006367    58.677442    57.807178    58.936173    199910.16   -53.897951    -30.47924   -96.572339  -0.46767988   0.25280275  -0.24563033 
   76000           38    300.92497    806.49739    42842.767    18889.927     23952.84    10514.026    20332.973   -4108.5653    389.87988    -1794.993    1.2037821    58.465447    57.489067    59.321766    199387.81   -87.722956   -99.516887     -57.9152   0.22758863   0.13261567    0.2205646 
   78000           39    294.66531    529.61615    42391.802     18496.99    23894.812    10494.467      20402.1   -4176.2518    385.90439   -1829.4495    1.2029016    58.320739    57.703265    59.291574    199533.76   -119.14777    -20.35794   -21.484363  -0.42023722  -0.49683089   -1.0068316 
   80000           40     296.0825   -455.80936    42556.897    18585.951    23970.947    10575.905    20283.087   -4033.5418    384.18401   -1872.1739    1.2017265    58.747698    57.396535     59.23308    199728.87    36.688812     68.71564    33.150199   0.77469656  0.061884782  -0.25199497 
   82000           41    295.97924    262.95449      42548.8    18579.469    23969.332    10520.399    20370.031   -4050.4563    402.62248   -1916.5207    1.2016127    58.521063     57.64194    59.214923    199747.78   -59.521435    12.166232   -32.576389  -0.44984078  -0.15011927   0.09745294 
   84000           42     297.7597   -126.62195    42764.399    18691.234    24073.165    10536.764    20381.515   -4050.1804    389.08066   -1809.7908    1.1997883    58.451147    57.582965    59.436712    200051.51   -79.582331    77.945741    40.126498  -0.34423307  -0.30751553   0.32453697 
   86000           43    296.98254   -284.18323     42643.94    18642.449    24001.491    10563.638    20343.418   -4034.3802    376.70413   -1849.6991    1.2022503     58.48359    57.524194    59.342663    199641.85   -4.4148074    98.863678   -8.0642716     0.181136   0.26932142   0.74193398 
   88000           44     298.0577   -549.76797    42673.993     18709.94    23964.053    10603.102    20266.704   -3992.5187    376.71428   -1898.6914    1.1991709    58.986506    57.520789     58.99129    200154.52    73.780785      3.81482    89.520113  0.059573323  -0.39083107  -0.28065737 
   90000           45    296.16333    500.94087    42695.218    18591.025    24104.193    10567.438    20465.055   -4129.9944    396.43256   -1805.7429    1.2003017    58.492648     57.84944    59.095661    199965.95   -14.563411   -58.655801    -79.05429    0.2566817   0.20608184  -0.43008586 
   92000           46    300.27285    788.68989    42910.346    18848.991    24061.354    10622.216    20358.308   -4186.2735    396.08516   -1760.2191    1.1975447    58.672851    57.732755     59.16914    200426.31   -13.609726   -33.623742   -192.50854  -0.97289524     0.171523  -0.39227228 
   94000           47    296.69434   -191.77855    42656.834    18624.358    24032.477    10431.392    20471.844   -4059.2268    393.93292   -1808.5499    1.1985771    58.560788    57.782384    59.180434    200253.68    49.577473    58.886903   -50.168491  -0.29046896  -0.60074779   0.33184019 
   96000           48    298.12611    269.40162    42758.126    18714.234    24043.891    10547.483    20425.359    -4010.162    379.66373   -1901.9893    1.2024373    58.353604    57.609309     59.37774    199610.79   -165.62502    39.494749    44.238913 -0.042207375 0.0012681412   0.26268969 
   98000           49    297.40876    85.927078    42477.321    18669.204    23808.117    10403.957    20351.005    -4094.568    386.43715   -1860.9881    1.2020902    58.591485    57.658603    59.103171    199668.43    -8.566862   -64.196576    46.643754   0.38110939   0.51482807   -0.7917893 
  100000           50     300.7018      1203.21     42832.48    18875.918    23956.563    10530.933    20441.061   -4182.5174    383.56957   -1843.8245    1.2053959    58.484309    57.293067    59.425839    199120.86   -126.19014   -129.80665   -109.74896   -1.3095104   0.17041842   0.42766511 
  102000           51    295.71817   -404.79597    42706.991    18563.081     24143.91    10461.428    20559.891   -4052.2985    369.01767   -1822.5674     1.200454    58.759478    57.698653     58.97356    199940.58    112.89082    57.899053   -47.742018  -0.55589831    0.9029826  -0.48092685 
  104000           52    296.02541    422.50969    42563.312    18582.367    23980.945    10525.994     20373.59   -4113.0681    384.63677    -1780.844    1.2013766    58.543294    57.640501    59.205546    199787.03    93.902796   -113.36333   -108.97186  -0.40285155  -0.55885635   0.83154589 
  106000           53    297.73115   -357.80131    42800.597    18689.441    24111.156    10520.185    20473.704    -4095.176    399.20404   -1823.9124     1.197055    58.299931    57.622059    59.686422     200508.3    15.673242    61.374581    31.714831  0.088336218  -0.23609236  -0.91796984 
  108000           54    297.82539    379.99113    42600.229    18695.357    23904.872    10569.275    20333.838   -4201.7022    388.59285   -1794.9919    1.2004797    58.742556    57.794563    58.891393     199936.3   -8.0102427   -102.05799   -5.4395732   0.76049934   -0.4638449   0.15447342 
  110000           55    297.62237   -313.08706    42640.398    18682.613    23957.784    10452.606    20430.169    -4084.472    390.24391   -1861.9765    1.1983804    58.636029    57.576062    59.326027    200286.54    36.995841    66.134963   -7.9601633   -0.3470814  -0.18319247   0.25173414 
  112000           56     300.3268    469.86014     42917.03    18852.378    24064.652    10468.163    20450.294    -4144.491     394.6876   -1703.6294    1.2010541    58.672588    57.529473    59.204982    199840.68   -49.115724   -89.002533   -4.7074789 -0.096417211   0.25897544  -0.29110669 
  114000           57    298.78634    211.71917    42847.565    18755.679    24091.886    10594.051    20341.078    -3989.725    395.04947   -1846.7431    1.2051481    58.652353    57.374124    59.184034    199161.81   -133.76157    49.510396    19.893838   0.18977203 -0.041792384   0.32466955 
  116000           58    298.59082    334.12387     42782.07    18743.405    24038.664    10506.189    20360.549   -4044.7324    381.24213   -1769.6969    1.1994398    58.747644    57.638691    59.096733    200109.65   -106.86868    7.6671257   -2.3637476   0.51820251  -0.76929955   -0.3196974 
  118000           59    296.50663   -676.42048    42567.577    18612.575    23955.002    10530.997    20348.495   -4010.1125    392.31338   -1893.2646    1.2024333    58.519357    57.630138    59.188357    199611.47    84.178219    34.057094    87.379602  -0.32843718   0.51834877  -0.29759801 
  120000           60    299.94531   -1296.7018    42675.687     18828.43    23847.257    10378.607    20374.306   -3993.2471    398.03989   -1917.2845    1.1990648    58.856945    57.499337    59.148436    200172.23    130.66936    204.96091    58.534666  0.093523128  -0.66353409  0.018177866 
  122000           61    297.72457   -280.38526    42540.781    18689.028    23851.752    10532.619    20227.144   -4048.2533    395.17203   -1863.8461    1.2021015    58.623674    57.844041    58.880797    199666.56    37.435185    68.183735    -20.38881  -0.58805488  -0.51633627  -0.62041632 
  124000           62     296.7992    617.73395    42517.172    18630.941    23886.231     10614.68    20310.003   -4211.7685      384.139   -1813.7031    1.1984822    58.684885    58.078141    58.759207    200269.54    17.002848   -101.91313    -102.8654 -0.033869613  -0.52269456   0.22996341 
  126000           63     300.5106    335.70737    42841.714    18863.916    23977.798    10494.479    20314.838   -4056.6851    400.51566   -1795.3709    1.2013936    58.561062    57.928243    58.892754    199784.21   -85.568659    61.894031   -78.372019   0.49266575   0.50805562   0.35977421 
  128000           64    296.49229    730.24257    42675.321    18611.675    24063.646    10464.098    20363.863   -3952.7326    385.90788   -1795.8548    1.2012942    58.490422    58.010603    58.885041    199800.75   -60.998996   -74.051973   -86.924518  -0.70624663   0.68588956  -0.67612437 
  130000           65    297.72549   -3.6568332    42689.986    18689.086      24000.9    10503.111    20316.583   -4034.9922    393.49977   -1797.6922     1.200553    58.558784    57.647868     59.22292    199924.09    65.355584   -26.401311   -37.842686   0.62658407  -0.48796513  0.059879525 
  132000           66    302.53836    126.08222    42942.254    18991.204    23951.051    10476.552    20400.485   -4173.4457    389.68913   -1741.6211    1.1977355    58.806948     57.72123    59.036602    200394.39    9.1566309    25.574357    -73.05683   -0.4723993   0.32685665  0.031550806 
  134000           67    297.30807   -371.23429    42810.268    18662.883    24147.384    10561.877    20503.643   -4077.3383    401.17396   -1863.0316    1.1954227    58.849834    57.679699    59.150274     200782.1   -2.7537708    43.438015      72.1617   0.11540455  -0.63410439  -0.43280214 
  136000           68    297.28064   -1100.4154    42708.592    18661.162     24047.43    10535.183    20289.544   -3910.0004    395.06625    -1852.944    1.2004432    58.883671    57.453993    59.100309    199942.38     143.1768    42.637541    148.68444  -0.14751009   0.19766884   0.14908196 
  138000           69    301.55261    740.18679     43082.18    18929.326    24152.855    10600.451    20374.084   -4164.3164    403.19114   -1690.9383    1.1979254    58.863143    57.893807    58.795101    200362.62    10.679857   -74.271753   -161.40639  -0.82713138  -0.46704613  -0.74623908 
  140000           70    298.50732   -945.31888    42716.382    18738.164    23978.218    10581.389    20213.713   -4089.6144    359.32585   -1707.2054    1.1919775    58.577513    57.964017    59.304689    201362.42    73.162671    107.68356    106.50707    1.1100397  0.089634151  -0.73414081 
  142000           71    296.21546   -218.60792    42838.035    18594.297    24243.738    10600.438    20448.959   -4016.1381      389.171   -1767.6723    1.1999403    58.865705    57.505543    59.090107    200026.18   -39.149868   -43.550376    149.15159   0.50282025   -0.3545602   0.22077259 
  144000           72    298.62224   -691.27093    42835.002    18745.378    24089.624    10530.848    20423.455   -4080.8414     398.3602   -1837.1661    1.1952249    58.654641    57.859918    59.172055    200815.32    10.805267    61.268247    138.05557  -0.23414978    0.2613719    0.2261529 
  146000           73    297.57603   0.97582925    42950.454    18679.704     24270.75     10510.62    20433.331   -3955.6776    420.70447   -1735.7628    1.1954921    58.368075    57.974464    59.331817    200770.43   -85.831037    25.762222    59.772187  -0.73511686  -0.32960055  -0.34155193 
  148000           74    298.00261    -249.3958    42671.183    18706.481    23964.702    10535.949    20270.216   -4093.6207    394.55807   -1765.7147    1.1999708    58.859698    57.678509    58.917422    200021.09    2.9087538    80.709137   -7.8078011   0.49574535   0.29675659  0.014707876 
  150000           75    299.28674   -492.00916    43020.529     18787.09    24233.439    10669.764    20475.585   -4087.0858    382.03368   -1818.7993    1.2013532    58.241122    57.909882    59.237039    199790.92   -16.307064    29.199699    136.66585    0.1681594  -0.40941746  -0.24483225 
  152000           76    298.82796    226.64373    42693.014    18758.291    23934.723    10653.756    20380.998   -4242.3169    396.53174   -1859.0758    1.2024835    58.333003    58.080652    58.914409    199603.13   -46.016502   -1.5335623   -21.343963   -1.0175587   0.80196158   -1.0121028 
  154000           77    298.25574     1369.782    42741.891    18722.371    24019.519     10576.47    20427.847   -4243.1289    378.24159   -1738.9485    1.1956158    58.595258    57.872237    59.200049    200749.66    -184.3295   -129.60921   -102.44077   0.93934263  -0.10919542   0.24392661 
  156000           78    295.62065    29.421231    42578.809    18556.959     24021.85    10636.807    20279.519   -3997.8033    387.01992   -1860.2195     1.199962    58.564844    57.961323    58.925558    200022.56    1.0093076   -86.826075    76.873448  -0.76494279   0.77315943  -0.25620026 
  158000           79    301.14711    -606.4887    42981.022    18903.871    24077.151    10608.187    20346.339   -4073.7023    382.49594   -1788.2414    1.1984242    58.718775    57.747397    59.064494    200279.22    94.682928    4.0881165    85.586357 0.0087845661  -0.15481143  -0.61715723 
  160000           80    297.49759   -598.88072    42664.733     18674.78    23989.953    10624.886    20246.323   -4128.2896    392.44103    -1763.966    1.2006137    58.521542     57.85956    59.040807    199913.98     -38.8283    174.37998    46.493091 -0.034518504  -0.50562004   0.12565336 
  162000           81    294.84917    36.201699    42391.698    18508.532    23883.167    10486.778    20291.616   -4010.4354    400.99016   -1914.3171    1.2007677    58.619099    57.632083    59.167612    199888.35    18.548943   -112.07654    82.523183  -0.17421791  -0.53193273   0.26500922 
  164000           82    297.47121    753.79851     42598.13    18673.124    23925.005    10354.326    20336.725   -4032.1839    396.61607   -1741.8572    1.2008957     58.46459    57.836651    59.107849    199867.05   -88.960541  -0.12781172   -140.04755  -0.13306067 -0.0026229266 -0.099092008 
  166000           83    299.85374   -480.58884    42984.998    18822.682    24162.316    10652.258    20435.694     -4026.36    392.50962    -1882.193    1.1993117    58.544685    57.921595    59.018262    200131.02    8.4804514     11.82509    125.78145  -0.28811929  -0.19164665   -0.2420089 
  168000           84    300.89212   -138.14546      42909.8    18887.865    24021.935    10520.322    20336.993   -4026.1701    378.85664   -1810.4324    1.1996707    58.890771    57.750853    58.827279    200071.12    48.595774   -51.187148    44.584141   0.36756379  -0.17639029  0.036159652 
  170000           85    300.79985    88.547315    43099.285    18882.072    24217.212    10596.162    20442.351   -4103.0449    406.41863    -1740.797    1.1975058    58.709257    57.854797     59.00963    200432.82    76.682813   -44.203443    -59.39554  -0.86199685   0.29382744   0.37828673 
  172000           86    298.80596    608.88826    42674.956    18756.911    23918.045    10457.892    20340.169   -4144.4039    386.24397   -1723.2798    1.1983427    58.826416    57.762963     58.94454    200292.85    95.853384   -114.55587   -166.38432   0.58099844   0.20168866   0.11330127 
  174000           87    297.54383   -274.05824    42732.972    18677.683    24055.289    10540.181    20340.564   -4026.3319    404.85471    -1806.267    1.1978829    58.665228    57.618867    59.277056    200369.72    11.801881    50.093652    21.411321  -0.15633874   0.52808213  -0.78279961 
  176000           88     296.1249    403.52276    42614.512    18588.613      24025.9    10440.702     20438.95   -4039.1982    390.74852   -1854.4883    1.2023098    58.576802    57.735259    59.028713    199631.97   -105.20966   -26.383891    8.9327213    0.2672638  -0.84397537   0.29169818 
  178000           89    297.45884    709.39143      42861.1    18672.347    24188.753    10481.033    20365.661   -3988.4205    389.95188   -1629.6366    1.1923078    58.629119    57.987696    59.211881    201306.63   -113.04197   -1.2312458   -101.36405  -0.06723507   0.28076223 -0.023625273 
  180000           90    294.63839   -200.57684    42397.059      18495.3    23901.759    10429.087    20449.041   -4063.0196    373.90683   -1875.0488    1.2013766    58.541068    57.774086      59.0709    199787.04    37.532709    38.732765   -15.295127 -0.0039825366  -0.60527434   0.10372989 
  182000           91    298.39134    760.18239    42830.799    18730.883    24099.916    10555.594    20396.015   -4126.9258    405.81064   -1753.0777    1.1945694    58.656299    57.622378    59.446906    200925.51   -74.122988   -89.116371   -67.837084   -1.0672912   0.67407896  -0.82388264 
  184000           92    298.44594    575.03448    42826.091    18734.311     24091.78    10457.128    20379.385   -4017.2631    394.58417   -1760.6029    1.1927439    58.735169    57.780365    59.295371    201233.04   -4.7832383   -95.352782   -74.660086   0.12080629   0.16325943   0.39330281 
  186000           93    298.90076    -653.4393    42926.434    18762.861    24163.573    10686.989    20491.993   -4155.1716    390.40161   -1838.2478    1.1958098    58.704938    57.655627    59.301819    200717.09    74.289083    62.864826    61.475304  0.046717733 -0.023084139    1.0033592 
  188000           94    299.44523   -589.10279    42726.689    18797.039     23929.65    10533.933    20209.203   -3919.1313    393.43804    -1889.898     1.196185    58.928209    57.449744    59.270255    200654.15   -17.360107    87.402933    109.02969  -0.79821066    0.5041343   -1.1945853 
  190000           95    297.56825   -283.49602    42711.357    18679.216    24032.142    10543.728     20476.23   -4102.1441    394.99289   -1875.9142     1.198865    58.909364    57.454695    59.151579    200205.59   -21.576114    29.964062    77.787755 -0.066136827  -0.77995695  -0.49319311 
  192000           96    298.52483    143.25719    42588.561    18739.263    23849.298    10379.829    20060.465   -3928.5901    395.43641   -1654.7271    1.1977956    58.363152    57.984723    59.212232    200384.33   -51.930855   -36.976027    45.360278   0.69279656  -0.30477126 -0.022795465 
  194000           97    300.57148    9.2553585    43086.336    18867.737    24218.599    10618.209     20496.65   -4134.7731    392.68441   -1769.8169    1.1968036    58.588036    57.710963     59.31388    200550.43   -35.982081    41.532665   -8.3639819  -0.68102125   0.23669414   0.45093501 
  196000           98    296.39676    62.978031    42649.947    18605.678     24044.27    10650.152     20362.38   -4101.9577    390.20244   -1846.8549     1.197809    58.431553    57.684332    59.450237    200382.08    19.509941    4.9736944   -43.627382  -0.11666191  0.083995712   0.70484545 
  198000           99    299.04845    15.297186    42742.662    18772.132     23970.53    10516.928    20311.586   -4115.6075    395.74659   -1746.7396     1.198937    58.566716    57.710483     59.23038    200193.56   -28.367532    5.9929356    17.724634  -0.90849746  -0.79069209  -0.60921705 
  200000          100    302.17417   -1261.4142    43048.948    18968.343    24080.605    10581.343    20291.089   -3981.8817    391.70302    -1803.844    1.1985248    58.523336    57.814759    59.187729    200262.42    145.01534    35.797264    202.62578   0.16369479   0.26642368  -0.54995114 
  202000          101    300.04204     368.6803    42913.248    18834.503    24078.745    10460.912    20413.359   -4017.0451    408.30463   -1796.2888     1.198817    58.748433     57.70729     59.05635     200213.6   -101.93977    -28.11741    17.987585   0.11976232 -0.037312824  -0.16569641 
  204000          102    297.38498    931.09834    42694.272    18667.711    24026.561    10576.923    20324.985   -4092.9485    404.70735   -1767.2299    1.1994671    58.687106     57.62652    59.168836    200105.08   -114.58654   -96.114231   -72.329849   0.11633595  -0.72036385  -0.44065065 
  206000          103    296.42995    338.09923    42751.621    18607.761     24143.86    10597.455     20367.01   -4080.6655    409.25496   -1750.8492    1.2010194    58.553381    57.459963    59.399001    199846.46   -20.131741   -45.080517   -37.561458   -0.3016263  -0.92537499  0.038182147 
  208000          104    294.93587   -1045.4814     42549.61    18513.974    24035.636     10510.38    20379.456   -4024.0297    388.27463   -1814.3942    1.1991007    58.630604    57.524997    59.348513    200166.23    118.69666    89.709661    109.39388  0.020866477    1.0944946   0.23361082 
  210000          105    298.76546   -438.14678    42757.826    18754.368    24003.458    10474.067    20386.634   -4048.9704    408.54337    -1824.269    1.2004053    58.780505      57.4235    59.237347    199948.69    35.323271    133.60054   -35.738144  -0.81004572  -0.16188787  -0.18862527 
  212000          106    296.47663    185.73116    42762.208    18610.692    24151.516    10494.408    20436.332   -3984.9121     402.5159   -1788.3929    1.1969927    58.722166    57.585049    59.298425    200518.74   -10.590027    70.565861   -116.43346   0.74180665    0.6120928 -0.071140217 
  214000          107    295.00037    591.84276    42637.971    18518.023    24119.948    10541.783    20432.464   -4099.6326    375.66385   -1753.2005    1.1998637    58.785443    57.551462    59.127347    200038.94   -124.80553    7.4882317   -62.588099  -0.35599207  -0.93723791  -0.83112779 
  216000          108    296.32368   -281.89653    42659.817    18601.091    24058.727     10539.02    20408.253   -4072.5614    386.61105    -1795.496    1.1979399    58.819297    57.586468    59.152236    200360.19   -76.627408    112.41372    49.903188    0.1440329   0.27934524    0.3257454 
  218000          109    293.84981   -331.90039     42474.14    18445.798    24028.342    10540.191    20468.667   -4139.5318    394.94847   -1827.5847     1.199422    58.828355    57.504572    59.154173    200112.61    10.115993     -13.7856    104.55903  -0.13326912  -0.47964438  -0.14587979 
  220000          110    299.95902    -484.3652    42885.889    18829.291    24056.598    10587.256    20392.461   -4076.0681    387.71672   -1828.6325    1.2005519    58.714308    57.519632     59.19779    199924.28   -17.587375    75.253422    89.568866   0.30900854   -0.1818132  -0.47391928 
  222000          111    297.30639   -257.98985    42691.436    18662.778    24028.658     10541.65    20328.283   -4004.0188    390.54425   -1835.5345    1.2002615    58.870237     57.47349    59.102692    199972.66    -10.39419    43.906542    44.910113  -0.78321488  -0.54037668 -0.048279796 
  224000          112    296.62909     1053.514    42735.997    18620.262    24115.736     10497.78    20543.183   -4124.0364     404.3636   -1813.0457    1.2034452    59.002265    57.506417    58.780755    199443.62   -14.882919   -147.10948   -158.24951   0.59753728   0.33835415  -0.95329253 
  226000          113    298.90474    372.65706    42680.394    18763.111    23917.283    10619.508     20334.67   -4148.0963     382.2605   -1873.8229    1.2018524    58.967594    57.485263    58.914937    199707.95   -56.710438   -7.3241941   -49.243798   0.59317043  0.092073362   0.10008008 
  228000          114    299.47523   -308.12136    42834.878    18798.922    24035.955    10537.051    20426.319   -4106.4127    401.43774   -1814.7808    1.2004922    58.712901    57.484429    59.238408    199934.22   -2.5308837     -8.16834    104.36041  -0.32933602   -1.1922875    -0.375425 
  230000          115    297.71682   -402.90752    42749.867    18688.542    24061.325     10508.57    20422.331   -3977.7869    406.23465   -1924.7371    1.2027876    58.816219    57.646515    58.855542    199552.66   -25.122459    106.48211    41.114165  -0.57518396   0.71821249  0.067566277 
  232000          116     297.7629    794.08743    42647.518    18691.434    23956.084    10506.448    20408.813    -4134.045    404.59608   -1828.3031    1.1996882    58.991459    57.239474    59.250677    200068.21    41.130761   -182.90236   -99.611124   0.36607839  -0.98054712   0.47988272 
  234000          117    296.29109    695.32813     42437.71    18599.045    23838.665    10504.243    20347.108   -4137.3059    394.31041   -1882.5762    1.2019581    59.103364    57.249179    59.016804    199690.38   -34.521954   -127.38757   -49.452844  -0.30980822    1.5527588   -1.0161806 
  236000          118    297.81531   -85.782844    42569.536    18694.725    23874.811    10517.173    20298.465    -4162.818    392.96034   -1798.3359    1.2010823    59.110203     57.33064    58.969094    199835.98    26.476035   -51.744745     51.34455  0.044964808   0.28787457  -0.20077253 
  238000          119    293.87176   -554.93731    42437.816    18447.177    23990.639    10544.848     20419.65   -4133.6647    370.81623    -1848.044    1.2025497     58.96964    57.132871    59.241891    199592.14    138.29141   -22.419457    52.815114  -0.40365357  -0.13733679  -0.55654951 
  240000          120      296.194    681.59999    42671.742     18592.95    24078.792    10602.588    20354.178   -4083.6056    384.96249   -1786.9057    1.2010214    58.973534    57.377912    59.060054    199846.12    -54.75272   -150.27804   -2.1586037   0.12142094 -0.083267783  0.059960277 
  242000          121    301.07387    345.44822    42858.059    18899.274    23958.785    10513.456    20314.729    -4113.881     395.8939   -1763.0097    1.1984802    58.934793    57.342782    59.260472    200269.87    57.082171   -24.193559   -137.89623 -0.054826368   0.64560131   0.45555338 
  244000          122    297.51615   -343.63532     42700.49    18675.945    24024.545    10550.472    20259.476   -4033.3004    401.86128   -1783.0451    1.2022791    58.857005     57.42948    59.061999    199637.07    141.04881   -85.067872    48.475606  -0.12641976   0.27369919   -1.3072789 
  246000          123    297.24316   -333.90112    42652.157    18658.809    23993.348    10314.828    20373.681   -3896.6702    386.71322   -1785.8607    1.1987558    59.034104      57.2928    59.198776    200223.82    112.52714    11.090883   -22.120431  -0.46942418   -1.1207636   0.23484726 
  248000          124    298.02105     398.4127    42688.168     18707.64    23980.529    10515.365    20317.264   -4111.4311    386.14666   -1765.7618    1.2018581    58.957648    57.312999    59.101704       199707   -152.08837    61.020436   -30.039567   0.41489521 -0.099872165   0.13895766 
  250000          125    296.44425    47.833382    42674.496    18608.659    24065.837    10621.924    20408.761   -4127.1065     389.8498   -1835.0035    1.1969825    58.866751    57.604146    59.133672    200520.44   -39.269539    86.197004   -61.467617 -0.048692552   0.64644154   0.11010552 
  252000          126    298.95644     1239.744    42965.701    18766.357    24199.345    10599.477    20429.217   -4124.3129    374.32227   -1695.1816    1.2007917    58.418666    57.617394    59.384559    199884.35   -88.462851   -58.090215   -230.29813   0.44365695  -0.80877032    0.8908181 
  254000          127    298.36693    208.64753    42820.369    18729.351    24091.018    10574.189    20356.948   -4074.8508    397.63953   -1738.2997    1.1958545    58.661602    57.774321    59.221493    200709.59     115.5726   -144.72034   -34.275893  -0.73201458  -0.15547902   -1.0691513 
  256000          128    295.69148    411.88872    42724.138    18561.405    24162.733    10584.895    20429.276   -4027.3516     375.8548   -1805.9701    1.1998334     58.89898    57.404815    59.165621       200044   -98.833126   -41.380144    15.009397  -0.66006379  -0.48964446   0.51108989 
  258000          129    301.59104    696.72433    42782.588    18931.738     23850.85    10634.383    20312.862   -4250.3358    401.00116   -1846.2806    1.2000949    58.816841    57.705126    58.927062     200000.4   -140.95827   -36.170385   -34.658123    0.5611507    1.1605917   -0.2967743 
  260000          130    299.14971    134.61268    42703.392    18778.488    23924.904    10509.384    20352.292   -4144.1591      398.417    -1834.615    1.1973683    58.548567    57.850454    59.182825    200455.85   -35.700233    3.2061941   -8.4248511  -0.60437547   0.53283924  -0.76687642 
  262000          131    295.81585   -333.92733    42503.575    18569.213    23934.362    10538.199    20442.599   -4184.2683    374.49103   -1845.2356    1.1952666    58.755755    57.886536    59.041004    200808.32   -66.033233     77.32264    90.216154   0.24256458  -0.73410701   0.12931867 
  264000          132    297.91076   -206.00016    42755.574    18700.716    24054.858    10695.375    20399.267   -4104.6184    387.38805    -1883.898    1.2060484    58.983838    57.118142    59.071042    199013.13    91.993897   -60.777301    31.402304  0.095198081  0.038967302  -0.15399052 
  266000          133    299.24261      725.732    42801.298     18784.32    24016.977    10564.143    20467.214   -4181.4536     380.3685   -1788.6639    1.2016389    58.780104    57.484854    59.113778    199743.43   -3.4778531   -103.49182   -113.63472   0.23623201  -0.26260738 0.0074061273 
  268000          134    299.24712    797.87911    42877.659    18784.603    24093.056    10628.521    20411.958    -4230.072    403.11946   -1739.7273    1.2029467     58.57036     57.41215    59.336018    199526.28    10.572607   -97.521828   -155.58608   0.45624748  -0.31262448  -0.29746874 
  270000          135    298.47926    715.36633    42769.682    18736.402     24033.28    10524.074    20266.281   -4007.0692    399.35447   -1752.7831    1.1973501     58.62548    57.883999    59.071823    200458.89    15.079303   -93.792782      -138.74  -0.45582113  -0.69127852   0.58032141 
  272000          136    299.10696   -558.32645    42876.587    18775.805    24100.782    10692.651    20249.749   -4080.6575    407.82627   -1786.1821    1.1992651    58.677378    57.528852    59.289103     200138.8    97.885218   -47.729955    119.56202 -0.067964502   0.16443866  -0.07052926 
  274000          137    298.75814   -67.117984    42733.489    18753.909    23979.581     10577.87    20410.225   -4151.1921    389.71405   -1850.0632    1.1990966    58.665112    57.628156    59.207629    200166.91   -27.089035    5.0964243      42.3948   0.13821895   0.25261446  -0.25511719 
  276000          138    298.37215   -172.17469    42692.873    18729.679    23963.194    10565.716    20342.741   -4159.5521    403.17903   -1814.4778    1.1972817    58.845378    57.514184    59.232873    200470.34   -13.590941   -87.571781    153.49952  -0.31419057  -0.14041078  -0.15709424 
  278000          139    296.89351   -459.59474    42672.323    18636.861    24035.462    10546.185    20356.462   -4055.6205    396.10022     -1786.03    1.1997574    58.874831    57.475572    59.120769    200056.68    52.422972    52.863589    34.418752    0.1498981   -0.7208536  0.009561333 
  280000          140    295.56716    857.26991    42509.535    18553.601    23955.933     10561.65    20347.927   -4235.8335    392.18723   -1698.5383    1.2020094    58.546413    57.714079    59.095792    199681.86   -107.82149    -13.87181   -138.89532  -0.46956883   0.96455815  -0.14878918 
  282000          141    297.77264    383.45897    42616.023    18692.046    23923.977    10562.153    20236.487   -4121.6644    393.61385   -1744.6965    1.2033842    58.687692    57.561715    59.042046    199453.73    25.065118   -55.994334   -85.632725   0.13493516  -0.21054628 -0.056911057 
  284000          142    297.38101   -18.496014    42644.943    18667.462    23977.481    10636.584    20256.669   -4110.7619    392.54867    -1805.076    1.1990423    58.818865     57.69392    58.988218    200175.98   -66.761306    33.819331    38.564301  -0.17504762  -0.40324176  -0.59666014 
  286000          143    296.12493   -385.84741    42644.264    18588.615     24055.65    10538.808    20284.519   -3957.3385    395.49536   -1815.0921    1.1995346    58.572779    57.577199    59.331772    200093.82     79.87296     19.62829    17.786718  -0.21135818 -0.093070889  -0.57642171 
  288000          144    302.58496   -74.592443    42808.234    18994.129    23814.105    10617.065    20074.499   -4031.7686    395.78459   -1849.5491    1.2035869    58.738678    57.497142    59.047102    199420.14    24.658902   -43.685325    41.700662  -0.38076648   -1.2063419    1.1068654 
  290000          145    297.10123    269.11952    42561.722      18649.9    23911.822    10456.106    20277.621    -4175.162    395.73195   -1671.4505    1.2025844    58.566983    57.801761    58.957221    199586.39    5.6281841   -58.827375   -28.606415  -0.41982049     1.509277   -0.8681508 
  292000          146    295.47533     416.1588    42435.489    18547.837    23887.652    10533.906    20308.805    -4120.146     394.6692   -1826.2521    1.2063712    58.605735    57.604828    58.934083    198959.89    27.961269   -71.064383   -83.398755   0.81999375  -0.67213177   0.24595946 
  294000          147    295.00854     1123.127    42687.873    18518.536    24169.337     10694.25    20548.697   -4230.3634    379.53447   -1822.6271    1.1991478    58.370493    57.700392     59.42944    200158.37   -87.337945     -171.165   -82.899586  -0.98565274   0.06382761   0.58207328 
  296000          148    300.17305   -316.72901    42976.204    18842.726    24133.478    10700.986    20375.309   -4153.2075    375.02182   -1791.7016    1.1995728    58.616225    57.730455    59.128523    200087.45    1.6042805    16.645154    78.028265  -0.40460518 -0.060874645 -0.053449792 
  298000          149    300.26289   -56.380594     42777.51    18848.366    23929.144    10556.865    20412.563   -4211.2181    379.76922   -1803.7141     1.202631    58.547904    57.448215    59.337083    199578.65    58.635597   -43.985499    2.4881934  0.081245743   0.23456927  -0.14628299 
  300000          150    297.46668    12.451054    42795.517     18672.84    24122.677    10591.202    20323.858   -4059.5374     397.9668   -1751.4088    1.1946096    58.494301    57.708837    59.520229    200918.76   -8.6999162    12.483294   -7.5681866  -0.38790433  -0.36727432  -0.21839048 
  302000          151    297.53603   -1094.0805    42515.447    18677.193    23838.253    10467.539    20273.654    -4021.285    365.61095   -1858.7353    1.1999277    58.524822    57.692131     59.24268    200028.27     150.8724    161.15684    20.543893  -0.69105009   0.67173875 -0.090151019 
  304000          152    297.38318    572.18959    42610.357    18667.599    23942.758    10586.033    20201.584   -4015.6051    407.98447   -1814.3118    1.2049407    58.709373    57.228886    59.286808    199196.09   -85.737011   -68.927128   -19.267193  -0.12862558  -0.88604854   -0.6041051 
  306000          153    300.25002    460.26656    43013.655    18847.558    24166.097    10642.838    20470.379   -4243.9346    395.32044   -1706.7852    1.1976536    58.551955    57.748262    59.270001    200408.09    27.585238   -46.050462    -121.4443   0.48330176  -0.17401086  -0.40853711 
  308000          154    294.95095    598.60661    42701.971    18514.921     24187.05    10572.419    20473.637   -4088.1533    378.64242   -1736.9818    1.1985656    58.565375    57.860589    59.096384    200255.61    -6.450808   -54.725649   -120.78499   0.15487013  -0.66015658   0.63829688 
  310000          155    299.52743   -393.21332    42857.747    18802.199    24055.548    10546.755    20365.774   -3986.6376    386.03206    -1883.523    1.1970033    58.556888    57.799924    59.244207    200516.98     55.19719    103.75087   -39.421038  -0.19129082   0.09506683  -0.51208922 
  312000          156    299.34108   -552.88736    42836.779    18790.501    24046.278    10594.733    20347.788   -4001.5978    376.80813   -1851.0256    1.2007528    58.377806    57.773749     59.26722    199890.83     20.39006    95.850531    51.823345  -0.36482356  0.053545301  -0.68967186 
  314000          157    295.46213    58.562623    42457.941    18547.009    23910.932    10505.484     20474.18    -4166.804    397.76015   -1905.9725    1.1987014    58.963016    57.499084    59.060193    200232.91    77.773257   -50.210858   -45.363972   0.98252579  -0.12507849  -0.79887236 
  316000          158    299.26919    644.09779    42699.977    18785.989    23913.988    10618.493    20315.569   -4214.8588    402.40772    -1815.165    1.2009148    58.712502    57.677321    59.019921    199863.87   -104.01718   -24.372077   -67.400372  -0.84187695  -0.60914275 -0.052777669 
  318000          159    299.46239    342.56695    42840.174    18798.116    24042.058    10535.309    20411.741   -4144.1884    415.13425   -1803.8088    1.1966649    58.821131    57.702507    59.094337    200573.67   -44.305342   -40.468021   -19.358425   0.27718384   0.83764721   0.26590494 
  320000          160    295.46711   -466.28349    42562.055    18547.321    24014.734    10529.401    20361.441   -4083.6965    391.98675   -1793.3582    1.2008465    58.510109    57.480772    59.429964    199875.23    47.668291    69.115517    24.954715   0.45201639  -0.72428823   -0.3852549 
  322000          161    297.17355    -436.4081    42748.919     18654.44    24094.479    10552.686    20342.141   -4076.7165    384.66338   -1684.6419    1.1981551    58.610999    57.670996    59.264806    200324.21    113.34045    6.2369225    13.079779    0.3900574  -0.36990049  -0.22504417 
  324000          162    298.79324    873.50429    42741.745    18756.112    23985.633    10550.699    20312.097   -4129.7749     398.0441   -1768.9641    1.1989817    58.653247    57.652949    59.199811     200186.1    13.499053   -124.62841   -154.39411  -0.22736251  -0.30371297  -0.54806436 
  326000          163     296.2472    339.70207    42441.812     18596.29    23845.522    10511.719    20356.451   -4158.9911    387.67646   -1864.1017    1.1955456    58.733202    57.568958    59.375639    200761.46    18.569093   -4.8912702   -116.93876   0.18107129   0.35553047   -1.0594479 
  328000          164    297.35125    201.11359    42605.283    18665.594    23939.689    10546.417    20323.467    -4137.541    386.93449   -1776.8516    1.1983632    58.560925    57.713488    59.261514    200289.41   -21.422848    2.0105606   -41.721217  -0.87447924  -0.43641536    1.3566919 
  330000          165    300.27708    152.69758    42794.384    18849.257    23945.127    10586.349    20350.956    -4157.102    388.95409    -1831.995    1.1972465    59.010883    57.651854    58.927429    200476.23    -17.25548    66.028868   -95.189636   0.12772319    0.1514182   0.23774955 
  332000          166     296.5108    -62.94923    42733.816    18612.837    24120.979    10572.883    20356.411   -4046.4829    394.71392   -1753.9485    1.1996033    58.910384    57.680271    58.882965    200082.37   -134.40055    150.43329    3.1022508  -0.19119235   0.21856602  -0.36043297 
  334000          167    297.83451     1024.776     42643.61    18695.929     23947.68    10442.185    20339.424    -4100.463    411.80481   -1763.1747    1.2046037     58.75991    57.464309    59.009642    199251.82   -210.24029   -103.39011    2.1241112  0.051794359  -0.52935365  -0.53915337 
  336000          168    297.83716   -391.48969    42631.472    18696.096    23935.376    10454.466     20432.29   -4065.8897    404.11924   -1874.9157    1.1979455    58.635586    57.768569    59.150245    200359.26    3.1966742    27.750664    88.055739  -0.69889721    0.5284693  -0.16491461 
  338000          169    297.02092   -459.27171    42611.217    18644.858    23966.359    10651.935    20232.262   -4009.5081    400.53662   -1915.7255    1.1966771    58.645318    58.013876    58.952779    200571.63    31.848077    78.649563    29.109478  -0.16153164 -0.041636883   0.13176289 
  340000          170    297.42851   -663.78763    42723.725    18670.444    24053.282    10606.595    20311.448   -4006.6546     414.1009    -1878.037    1.1988376    58.735289    57.484722    59.297252    200210.16    24.922178    88.894884    87.957784  -0.50067653  -0.11510015  -0.30983264 
  342000          171    299.34959   -785.00803    42815.114    18791.035    24024.078    10513.736    20351.721   -3998.1931    383.46898   -1814.8985    1.1966372    58.787032    57.895965    58.932401    200578.31    132.08966    74.863069    31.670089 -0.093555366  -0.49224793  -0.83168908 
  344000          172    300.47003   -536.27471    42766.138    18861.369    23904.769    10522.683    20261.492   -4079.2445    389.03497   -1820.4033    1.1997071    58.699948    57.719437    59.048852    200065.07    37.527562    1.7927474     123.6938  -0.22536332   0.39352336    0.5980824 
  346000          173    298.66143    304.28813    42701.778    18747.838     23953.94    10464.911     20301.28   -4044.2638    387.52179   -1770.5126    1.1986303    58.739376    57.641352    59.142235    200244.79   -37.259952   -28.073448   -27.162584   0.32324484 -0.093685564  -0.09031578 
  348000          174    298.06442    164.31379    42723.785    18710.361    24013.424    10618.158     20377.69   -4179.0741    400.23003   -1810.3659    1.2015137    58.253545    57.799674    59.329406    199764.24   -89.110493    25.352363    13.810846 -0.043282008   0.45486971  -0.22062514 
  350000          175    299.05373   -265.70911    42832.818    18772.464    24060.354    10434.303    20476.277   -3997.4704    402.17788   -1860.5194    1.2016801    58.834209    57.500918    59.040894    199736.59   -2.7602097     59.57889    23.950247  0.078455803  -0.55079788    0.5702019 
  352000          176    299.06997   -445.98544    42786.183    18773.483      24012.7    10624.927    20318.785   -4111.2315    375.72572   -1814.3738    1.1996511    58.604429    57.481388    59.392803     200074.4    143.97638   -46.403421    37.995465  -0.50741773   0.33406538  -0.39012529 
  354000          177    299.78881    854.72055    42910.392    18818.606    24091.786    10546.212    20557.513   -4186.4843    385.47077   -1795.7418    1.1988065    58.772086    57.513911    59.231586    200215.35    -149.8303    26.715958   -136.69933  -0.16849184   0.44670122   -0.6981088 
  356000          178    297.33126    285.32027    42641.359    18664.339     23977.02    10647.916    20280.573   -4131.9756    387.17379   -1803.9622    1.1999282    58.765634    57.476125    59.221623    200028.19   -9.0397887    -74.92149   -2.7689487  0.071814916     -1.02774  0.058805127 
  358000          179    299.07219    377.82959    42764.187    18773.622    23990.565    10543.385     20503.04   -4215.9117    381.34942   -1798.8205    1.2030428    58.709815    57.525777    59.073432    199510.34    75.326057   -116.00336   -74.173452   0.33255016   0.15262146  -0.32173042 
  360000          180    296.47919   -161.16597    42653.618    18610.852    24042.765    10575.158    20381.226   -4034.9879    418.61732   -1900.0329    1.1982376    58.693684    57.639024    59.210068    200310.42    87.219672    18.386828   -56.616076  -0.69412572   0.54244486  -0.58328553 
  362000          181    297.25574    613.56949    42571.759    18659.599     23912.16    10498.381    20452.544   -4160.5014    380.82799   -1859.0738    1.2033429    58.532168    57.491018    59.273759    199460.58    2.4932828   -98.520978    -90.48209   0.56615284  -0.39923585  0.093133453 
  364000          182    297.69121    303.37432    42874.698    18686.934    24187.764    10582.646    20345.012    -3988.012    392.77373   -1759.3114    1.1982597    58.734776    57.542544    59.266756    200306.72   -37.289476    14.689846   -69.618578  -0.21302946  -0.46755535   0.51689608 
  366000          183    298.77937    223.36113    42764.949    18755.241    24009.708    10552.848    20357.367   -4124.6229     394.3717   -1793.7209    1.1957045    58.996456    57.492943    59.180981    200734.78   -11.495077    41.983901   -98.385025  -0.44161632 0.0086598194  -0.45157762 
  368000          184    296.63945   -225.53867    42610.094    18620.913    23989.181    10664.754    20196.247   -4121.5189    403.20643   -1735.0266    1.1986276    58.894708    57.385648     59.24922    200245.24    2.7877641    99.572671   -33.802317   0.57458738  -0.32549225   -0.1162682 
  370000          185    298.24109   -274.16798    42663.177    18721.451    23941.725    10539.353     20285.14   -4067.0388    391.73548   -1801.2296    1.1950238    58.904501    57.672807    59.122169    200849.12    26.787834    53.747572    2.8048057   -0.5065604   0.55707347   0.16106179 
  372000          186     300.7936   -182.92612    43043.757     18881.68    24162.077    10666.813    20373.761   -4120.4933    392.51515   -1768.8204    1.1956537    58.773658    57.748795    59.144644    200743.31     112.6084    48.360744   -105.36417  -0.03826224  -0.20319601  -0.15347739 
  374000          187    297.54728    403.12535    42679.607    18677.899    24001.708    10517.314    20416.533   -4212.6249    400.21064   -1713.5021    1.1955777    58.902262    57.505463    59.268998    200756.06   -75.061062   -2.6696185   -44.809348   -0.5054232  0.062509478  -0.36302342 
  376000          188    297.37047    189.68294    42726.318    18666.801    24059.517    10583.187    20426.131   -4182.5537    397.62605   -1757.8484    1.1952645    58.690355    57.545431    59.457258    200808.67   -124.51009   -11.814892    78.666111  -0.41386525   0.46711319   0.43906031 
  378000          189     299.2585   -37.221246    42945.848    18785.317    24160.531    10502.378    20358.108   -3949.7735    411.80181    -1765.363    1.1948129    59.022168    57.850159    58.833795    200884.57   -50.610293   -2.2664795    64.191101  -0.17805751   -1.3368107  -0.13251974 
  380000          190    300.41454   -262.84519    42826.334    18857.885    23968.448    10580.083    20396.282   -4174.4371    409.62398   -1829.5474    1.1964323    58.951062    57.824294    58.851344    200612.67   -12.962169     59.73605    33.124487   0.13154552   0.27850672   0.13496209 
  382000          191    297.00143    12.227088    42624.817    18643.635    23981.183    10445.869    20441.258   -4113.7193    397.45443   -1776.8479    1.1974066    58.618122    57.909039    59.050908    200449.43    77.679095    10.979186    -92.37501 -0.091566967  -0.65824666  -0.70253612 
  384000          192    297.61284   -236.16946    42892.946    18682.015    24210.932    10643.797    20419.801   -4070.4727     407.9882   -1784.3396    1.1991778    58.851999    57.525135    59.121304    200153.36    66.736343   -84.126737    89.180005 -0.0066103835   0.46224298   0.76663867 
  386000          193    302.45871    10.267109    42998.499    18986.204    24012.295    10489.668    20260.149   -3975.3196    410.28896   -1752.7991    1.1982778    58.678909    57.563645     59.30054     200303.7   -39.697445    23.771835    12.804665   -1.0822783  -0.49013073  -0.90793093 
  388000          194    299.61625    185.72303    42645.801    18807.774    23838.026    10466.494    20235.973   -4041.5928    405.53089   -1828.9247     1.201712    58.551458    57.635597    59.185805    199731.27   -11.073805    21.656616   -67.037967 -0.065725021   0.16835681   0.64779733 
  390000          195    300.48353    183.76603    42822.801    18862.216    23960.584    10360.659    20430.219   -4025.0737    387.46519   -1775.8693    1.2016544    58.935596     57.38849    59.056055    199740.86   0.13093473    -16.10554   -39.885673  -0.57234464  -0.15338242 -0.092150363 
  392000          196     298.9555    369.83716    42751.388    18766.297    23985.091    10535.856    20384.869   -4224.7553    404.43359   -1715.3288     1.198575    59.083959    57.480775    58.964286    200254.02    12.051497   -90.684998    -33.78775  -0.31139995  -0.19759124  -0.11976994 
  394000          197    296.56216   -461.73089     42613.53     18616.06     23997.47    10546.661    20276.189   -3996.4854    393.53275    -1801.581    1.1999934    58.557802    57.714798    59.182821    200017.32   -48.338665     65.30045    123.39286 -0.048899061    -0.142304  -0.37603186 
  396000          198    297.71978   -910.45499     42797.52    18688.728    24108.792    10629.875    20302.691   -3969.6162    392.60836   -1851.2763    1.2005263    59.030933    57.454843    58.947922    199928.54    39.261761    107.54681    129.94698  0.098299454 -0.0084392407   0.25196258 
  398000          199     298.1673    364.07125     42656.57     18716.82     23939.75    10489.768    20231.974   -4025.0626    400.72893   -1744.4268    1.1988063    58.747999    57.547862    59.220926    200215.39     89.27456   -169.72098   -30.222138  -0.51731151      0.18495  -0.26079613 
  400000          200    298.12105    564.61411    42674.109    18713.917    23960.193    10618.943    20208.568   -4099.0451    389.43735   -1726.0246    1.2031087    58.474607    57.445832    59.390334    199499.41   -26.507477   -39.474465   -105.64663  -0.11250106  -0.21292112   0.47997871 
  402000          201    298.82467    592.49383    42733.868    18758.085    23975.783    10506.882    20331.175    -4098.504    409.07126   -1765.4834    1.2035299    58.832809    57.426854     59.02758    199429.59   -85.785234     -147.681    53.362925  -0.40683454   -0.6918304  -0.11419155 
  404000          202    298.38297    29.681651     42642.45    18730.358    23912.092    10480.746    20230.688   -3989.3979    395.89437    -1774.448    1.1976704    58.975144    57.559508    59.036838    200405.28     12.11324   -70.691103    49.555383   0.30583793   0.68644158  -0.18142458 
  406000          203    299.26679   -46.229716    43057.633    18785.838    24271.795    10640.777    20441.938   -4032.8699     407.9948   -1754.4573     1.195981    58.927282    57.796342    58.925791    200688.36   -39.687415    -4.998323    58.738416  -0.25732732  -0.31132824   0.49419903 
  408000          204    299.09131    390.69753     42778.57    18774.822    24003.747    10534.575    20261.921   -3992.0856    393.84403   -1788.7213    1.1979433    58.920596    57.799146    58.833089    200359.62   -123.27294   -17.725001    22.235656   0.84087414   -0.6195013  -0.16465385 
  410000          205    299.44918   -490.74563    42935.745    18797.287    24138.458    10556.458    20325.524   -3963.2042    403.46874   -1795.6097    1.1950033    58.769362    57.695131    59.236208    200852.57   -15.939388    83.102024    82.011766 -0.027131279  -0.26837976  -0.62630916 
  412000          206    298.55155   -753.82669     42845.92     18740.94     24104.98    10562.026     20528.71   -4053.4439    389.65992   -1909.2232    1.1938794     58.62851    57.859511    59.265562    201041.64      41.1263    105.28632    82.731848   -0.5164016 -0.050121644   -1.0621201 
  414000          207    298.28237    578.59898    42826.022    18724.043    24101.979    10560.809    20367.673   -3992.6573    389.57915   -1807.0409    1.2017995     58.65507     57.53867    59.176471    199716.73   -121.65574   -31.875426   -22.348459  -0.27294081    -0.671444   0.40225592 
  416000          208    298.57428    760.65851    42784.247    18742.367     24041.88    10441.112    20356.257   -4050.7427    398.97059   -1710.0855    1.2007698    59.003767    57.315853     59.10609       199888   -39.128674   -100.41751   -91.674989 -0.089950768 -0.054402598   0.44080278 
  418000          209    297.40473   -507.94779    42571.632    18668.951     23902.68    10454.179    20337.928   -4038.7874    382.78984   -1842.0667    1.2027001    58.759929    57.692338    58.869417    199567.19    15.828103    27.360353    111.21497   0.15217404  -0.80504826  -0.13341402 
  420000          210    297.59185   -90.821219    42873.796    18680.697    24193.099    10537.242    20445.208   -3988.1145    403.74921   -1815.5503    1.1993024    58.883544    57.685479    58.919267    200132.57   -55.206581    70.268299    12.545663   0.20786935   -0.3717396  -0.44707249 
  422000          211    298.30887    164.69517    42830.083    18725.707    24104.376    10468.039    20379.917   -4053.5618    391.31547   -1711.3284    1.1958556    58.381631    57.880806    59.395966    200709.41   -22.373322    8.1111925   -35.801085 -0.044872985   0.23878149  0.093051015 
  424000          212    296.55033   -122.79028    42677.282    18615.318    24061.964    10515.833    20446.403   -4050.9321    394.45564   -1834.8385    1.1978664    58.414283    57.867701    59.276537    200372.49   -39.524425    25.171518    51.678082  0.071335301  -0.33238192  -0.29207163 
  426000          213    300.94832    282.93261    42917.044    18891.392    24025.652    10477.943    20397.534    -4112.976    385.04117    -1701.199    1.2018473    58.752851    57.591371     59.02158     199708.8   -9.4345551   -45.866432   -30.703452  -0.24698686  -0.78180282   0.40426686 
  428000          214    298.22192   -23.579176    42910.731    18720.248    24190.482    10591.782     20292.45   -3924.4635    401.17212   -1758.2276    1.1999217    58.520331    57.689751    59.249966    200029.27    14.963115    32.048522   -39.844157  -0.23930654  -0.82599395  -0.14371288 
  430000          215     299.1912    207.19179    42879.744    18781.093    24098.651     10621.49     20370.16     -4044.25    399.26682   -1845.1687    1.1999075    58.870329    57.426174    59.168748    200031.65    28.609996     5.055558   -96.646678  -0.22405159  -0.34562717  -0.69099337 
  432000          216    297.91108   -291.74424    42757.312    18700.736    24056.576    10625.465    20300.228   -4043.2666    389.15772   -1804.7833     1.200672    58.700505    57.556315    59.168055    199904.29    24.507886    27.477858    36.697211   0.43308018   0.26144579   0.36721773 
  434000          217    294.55386   -214.70829    42518.559    18489.994    24028.565     10494.47    20331.886   -3991.4826    393.20501   -1789.1325    1.2012863    58.487095     57.67314    59.233353    199802.06    64.205841    9.2133276   -8.1532177  -0.51649882    0.3082969 -0.090098245 
  436000          218    297.20247    55.367827    42593.209    18656.254    23936.955    10322.244    20504.675   -4064.4882    395.30242   -1812.6442    1.1966782    58.493722    57.704245    59.422658    200571.44    22.085603    -46.32792    7.4118811  -0.23732905  -0.69521252   -1.2208689 
  438000          219    301.67335    862.28855    42946.651    18936.904    24009.747    10528.061    20382.036   -4030.7636    387.55854   -1861.2441    1.2007094    58.631379    57.535532    59.257363    199898.05   -89.261023   -124.37449   -48.478646   0.24359382   0.24195656   0.94346036 
  440000          220    299.84979    123.80028    42872.606    18822.435    24050.171    10568.239    20399.737   -4145.1157    403.44475   -1785.2292    1.2012177    58.753133    57.394311    59.254983    199813.47    79.709011   -93.157602     -24.1836   0.50389526   -0.2748785  -0.56452921 
  442000          221    297.80737    520.68959    42638.676    18694.226    23944.449    10547.077    20345.125   -4109.7106    395.49378   -1799.9444     1.202312    58.666567    57.481769    59.198198     199631.6   -122.33398   -40.937448    4.9948093  -0.78452756  -0.30794875   0.70824766 
  444000          222    299.59847    102.08467    43036.285    18806.658    24229.627    10674.561    20314.278   -3993.1739    408.47641    -1771.612    1.2035642     58.65452     57.56182    59.066497     199423.9   -129.43125     59.35709     39.04297   0.21122577   0.13921081   0.17972913 
  446000          223    297.88963    -61.01729    42531.222    18699.389    23831.833    10462.928    20284.122   -4107.2652    398.22915   -1831.9755    1.2019833    58.495852    57.726619    59.135304    199686.19   -69.534311    33.857203    54.224839  -0.58044377    0.1123286  -0.53197094 
  448000          224     297.1604    37.363051    42758.892    18653.614    24105.278    10563.882    20337.639   -3999.4823    402.71658   -1796.6636    1.2066767    58.648809    57.439641    59.045205    198909.51  -0.84868374   -47.887011    37.378261   0.12273133   0.42875946   0.15578217 
  450000          225    295.49701    330.58154    42481.197    18549.198        23932    10467.113    20443.682   -4154.0732    401.25299   -1812.9394    1.2028689    58.445145    57.610132    59.262622    199539.18   -60.601874   -84.769758    44.883109    0.1404691  -0.61481741  -0.08720034 
  452000          226    298.36755   -169.75734    42610.904     18729.39    23881.514    10522.195    20257.788   -4021.4202    379.36528   -1844.9573    1.2033696     58.23866    57.638125    59.419121    199456.16    19.655479    46.942262   -14.995753  -0.51097721   0.42992858  0.070837073 
  454000          227    301.91816    106.44884    43016.148    18952.272    24063.876    10593.723    20450.084   -4147.4671    387.01532   -1806.5922    1.1996091    58.482432    57.641218    59.353749    200081.41    1.1745658   -58.666461    25.134108 -0.083824275  -0.46440959  -0.75682453 
  456000          228    295.48584   -110.27836    42628.761    18548.497    24080.264    10597.948    20330.094   -4150.5475    399.61835    -1685.485    1.1993574    58.624042    57.679125    59.183881    200123.39    -33.90801    62.866231    4.5636435  -0.26777886    0.1249987  0.090389142 
  458000          229    297.53557    257.68617    42620.519    18677.164    23943.355    10582.672    20329.482   -4077.7704    391.53791   -1853.1332    1.1997545    58.585618     57.66696    59.215584    200057.16   -103.00569   -51.012583    75.688115   0.31590955  -0.26672223  0.090472757 
  460000          230    304.22216    326.82839    43218.052    19096.901    24121.151    10619.102    20360.046   -4033.7173    399.96987   -1825.3028    1.2007466    58.739537    57.498716    59.184292    199891.87   -60.989633   -13.114866   -25.243162  0.062440563   0.57629901  -0.35279914 
  462000          231    298.15704    148.50661    42689.535    18716.176     23973.36    10624.029    20260.177    -4044.491    394.67337   -1883.2904    1.2020742    58.629415    57.769411    58.952429     199671.1   -186.21461    88.833499    52.238817   -1.0815926   0.49610487    0.1064873 
  464000          232    298.60282       102.23    42755.423    18744.158    24011.264     10469.51    20450.294      -4045.7    389.57899   -1872.1338    1.1983614    58.753857    57.785163     58.99374    200289.72   -69.399053    32.452738    5.8709513 -0.029858895  -0.16825632   0.38028524 
  466000          233    295.35306    245.06745    42673.461    18540.162    24133.299    10644.731    20338.646   -3994.4971     400.4226   -1832.0385    1.2020218    58.636959    57.784625    58.931896    199679.81    14.701443    -50.30006   -38.895762  -0.54311993  -0.44366601   0.43235944 
  468000          234    299.25326   -13.142516    42825.678    18784.989    24040.689    10536.205    20390.589   -4025.2304    406.95845   -1868.1579    1.1992061    58.672086    57.721594     59.09936    200148.63    95.559442   -15.166477   -76.397969  0.043061604     1.045052  -0.28901253 
  470000          235    296.03623    1113.4677    42333.693    18583.046    23750.647    10409.882    20261.146   -4163.1422    370.27325   -1745.9577    1.1976587    58.604771    57.810548    59.152535    200407.24    -146.8427   -55.420428   -136.20322  -0.54434624  -0.81168306   0.28183691 
  472000          236    298.00025    316.44502    42786.782    18706.333    24080.449    10598.258    20358.548   -4042.2499    391.44659   -1834.8266    1.2002388    58.430521    57.938379     59.07078    199976.43    4.5302537    -95.35321   -5.3684181    0.4683801  -0.34553809  -0.60469453 
  474000          237     299.0681    471.41055    42847.061    18773.366    24073.696     10574.17    20359.062   -4045.1886     406.6006   -1830.7097    1.2038054    58.381201    57.822882     59.06326    199383.94   -104.20656   -66.525258    27.434792  -0.69125544     -0.68521   0.28327908 
  476000          238     302.0755    798.79875    42927.214    18962.149    23965.065    10555.448    20364.484   -4203.8933    402.44948   -1757.6881    1.1994736    58.451266    57.906026    59.120498       200104    37.416785   -70.573825   -209.65781   0.19867404  -0.18589221  -0.21649525 
  478000          239    297.22827   -1220.8304    42655.297    18657.874    23997.422    10641.319    20234.094   -4021.1373    398.05201   -1873.1506    1.2028487    58.262014    57.837455    59.216235    199542.52    66.631312    104.54875    199.92186  -0.52985111   0.60227633   0.22095527 
  480000          240    297.86774    1101.1907    42575.028    18698.016    23877.012    10590.869    20255.939   -4159.0916    375.19341   -1783.7971    1.1956347    58.583279    57.795633    59.289703     200746.5   -104.00167    -105.8089   -124.92389   0.19895604   -1.0258329  -0.11464737 
  482000          241    297.26262    504.36411     42788.73     18660.03    24128.699    10531.352    20450.294   -4025.6042    408.45613   -1816.8609    1.2003657    58.578063     57.84872    59.007083    199955.29   -26.205021   -73.035465   -54.073594  -0.42322799  -0.45629185   0.10621489 
  484000          242     297.3758    332.67694    42793.346    18667.135    24126.211    10670.284    20418.176   -4104.4987    399.38595   -1860.4007    1.1978746    58.623813    57.983435    58.946377    200371.12   -83.198789      57.3479   -75.274583  -0.84604744   0.11067608 -0.099868823 
  486000          243     295.5657    751.18673    42591.943     18553.51    24038.433    10444.191    20507.092   -4118.0701     416.0189   -1787.6043    1.2012244    58.669065    57.487744    59.243117    199812.35    -30.38359    -56.40012   -141.55828  0.096748281   0.19770567   -0.9844503 
  488000          244    296.38888   -764.14517    42507.609    18605.183    23902.426     10446.64    20344.782   -4028.3249    404.51286   -1845.5419    1.1939218    58.866107    57.624099    59.265385    201034.49    112.16135    153.65819   -33.538503  -0.19437769 -0.043381413   0.63302451 
  490000          245    299.78325   -491.62018    42755.272    18818.258    23937.014    10528.497    20304.041   -4096.1527    391.55999   -1808.0168    1.1983823    58.549609    57.608041    59.380519    200286.23   -29.742855  -0.18845326    179.37155  -0.56236821  -0.88110539    -0.511755 
  492000          246    298.78732    640.10829    42934.353     18755.74    24178.613    10655.288    20284.459   -3972.9456    414.12044    -1805.441    1.1986536    58.553221    57.696334    59.272573     200240.9   -40.010671   -100.92965   -53.636592  0.047802664 -0.094578658   0.14250853 
  494000          247    299.48651    176.25651    42928.141    18799.631    24128.511     10668.82    20409.126   -4092.9338    407.05219    -1872.147    1.1979413    58.700772    57.618811    59.238335    200359.96    -88.84031    11.205272    24.057465  -0.11270254   0.40139687   0.36244285 
  496000          248    297.95002    -132.7286    42690.149     18703.18    23986.969    10506.026     20342.59   -3991.1858    391.50261   -1855.7459     1.199412     58.49733    57.688791    59.299441    200114.28   -51.044089    30.147066      61.2432  -0.26312901   -1.4616064  -0.57288484 
  498000          249    299.99783   -592.15508    42821.012    18831.727    23989.285    10408.163    20366.662   -4019.2801    398.34854    -1787.781    1.1974818    58.688302    57.903304    58.982431    200436.85    145.04302    106.85961    -71.90229    0.9026142    1.1933496  0.071405447 
  500000          250    296.13492   -48.558257    42680.698    18589.242    24091.457    10514.193    20463.508   -4098.5052    388.46634   -1771.7087    1.2018591    58.678595    57.629901    59.056179    199706.83    17.900522    -20.48821    17.348184  -0.40335467  0.020437006  0.051042027 
  502000          251    297.60645     512.5537    42495.691    18681.614    23814.078    10463.326    20247.567   -4095.6388    394.18579   -1804.1742     1.196296    58.861281    57.841353     58.93044    200635.53   -123.25816   -61.880832     29.33548   0.14415181  -0.34348785  -0.53079945 
  504000          252    298.97129    163.71491    42752.476    18767.289    23985.187     10522.04     20245.42   -4018.8885     392.1311   -1772.0196    1.2006273    58.483831     57.79291     59.14634    199911.72    83.452722   -106.68874   -26.529222   -1.5336642  -0.19012003   0.33148536 
  506000          253    297.80508   -391.70278    42798.011    18694.082    24103.928    10454.073    20409.695   -3989.5144    386.56859   -1765.7379    1.1979317    58.333913    58.038955    59.179831    200361.57     41.98107    26.698149    50.388635  -0.37496468   0.36983442  0.030544959 
  508000          254    297.33392    175.99206    42677.051    18664.506    24012.545    10488.496      20397.6   -4064.7794    391.80679   -1802.6006    1.2032251    58.632133    57.631435    59.034307    199480.11   -68.010755     63.43653   -48.922963   0.12575872   -0.3633654   0.21773901 
  510000          255    298.28352    365.38236    42832.358    18724.116    24108.242     10587.68     20333.17   -4053.5079    398.59411   -1765.8184    1.1961183    58.845877    57.755931    59.041818    200665.33    46.590906   -92.022807   -65.635203   0.10025416  -0.26952181  -0.29431669 
  512000          256     302.1572    29.285054    43138.378    18967.277    24171.101    10475.072      20433.2   -4090.2156    405.02543   -1663.4107    1.1945847    58.672651    58.011796    59.030645    200922.95    20.119359   -7.1673827   -21.853901   0.12155693  -0.54294206  -0.20056249 
  514000          257    298.03405   -385.88659    42689.553    18708.456    23981.098    10462.869    20274.574   -3949.5711    397.21203   -1818.0318    1.1992463     58.62039    57.707493    59.163954    200141.94   -20.992449    101.67014    36.622187   -0.1005357   0.22104089  0.017699289 
  516000          258    297.07403    -365.7887    42690.122    18648.192    24041.929    10544.383    20518.185   -4233.4209    379.70649   -1772.8616    1.1947995    58.732993    57.944955    59.027403    200886.82    40.282894   -13.122865     84.03059    0.2342985  -0.83138158 -0.038076475 
  518000          259    296.64118   -236.05558    42685.556    18621.021    24064.535    10542.373    20464.506    -4110.168    394.59381   -1849.4797    1.1975769    58.829621    57.337412    59.416755    200420.93     61.24508   -29.095375     39.60529   0.53722418   0.69501759  -0.83271962 
  520000          260    296.35405      305.005    42728.087    18602.997     24125.09    10571.112    20373.208   -4092.8312    385.79758   -1743.6065     1.197471    58.241444    57.936396    59.401563    200438.66   -21.428045   -46.894804   -24.391045  -0.34333047  -0.74442401 0.0057484126 
  522000          261    298.67926    815.13183    42773.828    18748.957    24024.871    10691.411    20308.164   -4247.2175    397.58919   -1747.4242    1.1974826    58.188217    58.216633    59.169123    200436.71   -103.10716   -124.66145   -20.011091  -0.37356978  -0.23933945   0.45942142 
  524000          262     296.9252   -900.57272    42674.112    18638.849    24035.263     10474.07    20483.544   -4021.9539    385.77159   -1898.0104    1.1967666    58.732873    57.870093    59.006736    200556.63    139.68585    103.19587    30.869881  -0.41326756   0.75423567  -0.43526431 
  526000          263    300.21418   -189.46996    42886.125    18845.308    24040.817    10592.729    20216.147   -3946.3326    401.88893   -1831.1809    1.1997207    58.942677    57.717027    58.807471    200062.78    81.636402   -11.717187   -12.325082   0.14523205  0.021485114  -0.33623282 
[...]
 2884000         1442    297.90605     4769.335    42258.474     18700.42    23558.054    10415.895    20330.567   -3971.0676     397.9954   -2143.2212    1.3124833    56.772425    55.809823    57.717112     182874.3   -511.90094   -410.71027   -527.14741   -506.58938     -506.844   -506.31738 
 2886000         1443     296.8105    5055.3575    42083.621     18631.65    23451.971    10364.265    20288.786   -3979.4106    408.65361   -2174.1575    1.3119026    56.887853    55.865579    57.567986    182955.25   -545.98879   -600.49688   -390.21661   -506.29981    -506.7349   -506.67928 
 2888000         1444    299.73057    4850.9757     42365.22    18814.951    23550.269    10571.896    20242.872   -4075.7439    396.38377   -2098.7667     1.312319    56.732195    55.909097    57.662703     182897.2   -498.62008   -471.68431   -504.27094    -506.6372   -506.87715   -506.82316 
 2890000         1445    297.72533     5373.586     42179.87    18689.076    23490.793    10561.797     20025.13    -3918.646    400.47207   -2127.2284    1.3161947    56.946796     55.53948    57.657424    182358.64    -510.5195   -555.73665   -567.17965   -505.66594   -506.86651   -506.38901 
 2892000         1446    298.59213    4800.7878     42350.63    18743.487    23607.142    10514.118    20209.228   -3895.5991    390.21855   -2146.0897    1.3141059    56.872622    55.552427     57.81091     182648.5   -494.42586   -555.77819   -409.11543   -507.20164   -506.04651   -507.12797 
 2894000         1447    296.81827    5634.8914    42248.965    18632.137    23616.828    10547.697    20245.586   -3999.3173    392.47649    -2084.274    1.3131295    56.937969    55.807836    57.523029     182784.3   -564.94132   -572.62435   -575.30043   -506.13347   -506.18634   -507.17889 
 2896000         1448    299.57911    4929.2438    42374.028    18805.443    23568.585    10471.234    20314.741   -3951.2006    405.16372    -2172.937    1.3131649    56.894548    55.761386     57.61333    182779.38   -491.39975   -426.40343   -580.56371   -505.99387   -506.87271   -506.41906 
 2898000         1449      295.039    4872.1778    42175.184    18520.447    23654.737    10533.345    20237.944   -4006.4879    408.90861   -2032.2599    1.3111127    56.831189    55.809368    57.718178    183065.48   -587.25296    -495.3453     -398.422   -507.79691   -506.78749   -506.69031 
 2900000         1450    297.84021    4156.0197    41923.449    18696.288    23227.161    10424.108    20150.032   -4002.4664    381.63523   -2243.9387     1.312023    57.037832    55.793977     57.48502    182938.46   -422.10039   -387.92126   -453.30443   -506.66448   -506.52786    -505.6402 
 2902000         1451    297.08571    2902.9937    42311.681    18648.925    23662.756    10527.034    20461.112   -3998.3615    374.23006   -2246.4445    1.3124643    56.774742    56.004843    57.514614    182876.95    -323.7274    -285.8558   -272.85432   -506.31421   -507.08038   -506.43738 
 2904000         1452    299.25125    4572.0103    42580.738    18784.863    23795.876    10574.096    20469.568   -4083.0663     393.6292   -2070.8629    1.3151954    56.772854     55.50367    57.915362     182497.2   -427.72465    -426.6024   -535.44978   -506.67762   -505.55857   -506.74793 
 2906000         1453    297.64112    4780.4733    42238.484     18683.79    23554.695    10542.657    20313.304   -4006.5162    415.91755   -2221.3091     1.309829    56.970322     55.80521    57.637942     183244.9    -437.2153   -491.11306   -524.81601   -506.16482   -506.94336   -507.29726 
 2908000         1454    298.94882    5437.1616    42227.365    18765.878    23461.487    10374.056    20163.428   -3957.1654    386.82529    -2058.314    1.3174887    56.749149     55.76117    57.571605    182179.52   -672.76709   -413.11071   -566.88338   -506.06515   -507.39153   -506.46199 
 2910000         1455     300.0303    5174.7581    42330.246    18833.765     23496.48    10597.885    20315.679   -4089.0242    381.52897   -2257.0475    1.3139456    56.855581    55.865655    57.511022    182670.78    -436.7829   -553.47833   -582.73587   -507.26478   -506.42691   -506.90161 
 2912000         1456    297.66723    4714.8293    42180.465    18685.429    23495.035     10490.29    20284.606   -4104.2561    387.12122    -2091.724    1.3147082    56.720214    55.893917    57.585706    182564.82    -407.7649   -503.28715   -522.13819   -506.95927   -506.32531   -506.43457 
 2914000         1457    297.45508    5595.9292    42423.375    18672.112    23751.264    10640.212    20413.296    -4107.465    400.08484   -2124.1915    1.3138254    56.778217    55.820207    57.641548     182687.5   -534.29507   -566.06342   -600.66409   -505.95735   -507.74142   -506.89238 
 2916000         1458     296.3606    5480.1974    42194.238    18603.408     23590.83    10517.851    20284.071   -4007.3313    387.71951   -2144.3685    1.3160264    56.684153    55.826033    57.634619    182381.95   -414.19573   -638.79933   -612.84795   -505.81638   -506.65782   -506.70549 
 2918000         1459    295.19699    4679.0168    42159.848    18530.365    23629.483    10498.069    20353.544   -4024.4709    403.24889   -2166.8122    1.3150317    56.756742    55.852165    57.577497    182519.91   -436.97631   -447.10679   -538.22104   -506.99084   -506.13091   -506.40181 
 2920000         1460    297.06951    5905.5724    42426.628    18647.909    23778.719    10588.988    20334.385   -4067.7301    411.93009   -2006.2789    1.3153719    56.783768    55.847651    57.539862    182472.71   -637.00821    -535.5539   -622.58426   -506.09836    -506.5529   -506.37771 
 2922000         1461     298.5187    5012.3465    42295.797    18738.878    23556.919    10527.551    20270.862   -4025.4152    405.84437   -2169.7365    1.3153329    56.900787    55.592523     57.68676    182478.12   -473.01975   -537.77733   -512.83096   -506.40247   -506.66422   -506.01644 
 2924000         1462    296.89431    4709.0122    42203.258    18636.911    23566.347     10571.67    20249.999   -4025.0695    394.72435   -2146.0852    1.3175717    56.662348    55.975662    57.435235    182168.05   -468.53792   -377.11441   -585.76965   -507.77444   -507.03133   -506.76887 
 2926000         1463    299.09053    5458.3251    42441.127    18774.774    23666.353    10670.836    20288.194   -4031.3339     391.5821   -2210.3513    1.3142163    56.705767    55.699905    57.822645    182633.16   -478.75213   -630.64783   -549.79442   -506.55956   -506.90699   -506.23721 
 2928000         1464    295.12655     6316.127    42220.005    18525.943    23694.062    10487.999    20358.276   -4046.8415     401.8601   -2051.9313    1.3195873    56.789279    55.824702     57.37406     181889.8    -627.4353   -716.11172   -576.39767    -506.3522   -506.42297   -507.39576 
 2930000         1465    296.56714    5544.0996    42189.033    18616.373     23572.66    10540.505    20244.978   -3985.2486    411.14383   -2165.0823    1.3173482    56.746264    55.660778    57.684528    182198.96   -553.69098   -562.60323   -568.97347   -506.60827   -507.39802   -506.22396 
 2932000         1466     298.6737    5093.7496    42485.415    18748.608    23736.807    10534.469     20313.73   -3935.9824    403.05886   -2093.8423    1.3151286    56.638253    55.874535    57.670602    182506.47   -486.04547   -427.06759   -635.25948   -506.53128   -506.13425   -506.66733 
 2934000         1467    297.75336    5245.7189    42278.068    18690.836    23587.233    10706.742    20300.136   -4157.8963    393.89058   -2208.9244    1.3138568    56.979818    55.826281    57.429982    182683.13   -521.25745   -533.80564   -539.50431   -507.17954   -506.20908   -506.39631 
 2936000         1468    299.34443    5095.6804    42404.914    18790.712    23614.203     10624.26    20109.904   -3969.3316    399.43941   -2067.7013    1.3152605    56.880398    55.680825    57.619094    182488.17   -490.93471   -566.15519   -491.86955   -506.47317   -506.31343   -506.99087 
 2938000         1469    296.63567    4207.7381    42035.252    18620.675    23414.577    10265.687    20247.229   -3863.0319    397.42782   -2160.9248    1.3162193    56.723981    55.629142    57.789529    182355.23   -411.82977   -454.79619   -412.42123   -506.29944   -506.83681   -506.39255 
 2940000         1470    297.40008    5616.3586    42276.346    18668.659    23607.687    10500.516    20209.099   -3925.1731     410.7277   -2105.4902    1.3145668    56.811664    55.809416    57.586255    182584.47   -602.79927   -525.79514   -578.63819    -507.0072   -506.92445   -506.69609 
 2942000         1471    296.47653    4234.9897    42217.528    18610.685    23606.843    10711.077    20221.572   -4060.3194    431.79843   -2240.4326    1.3119343    56.670844    55.920203    57.730588    182950.84   -410.49618   -321.95559   -554.87923   -506.54809   -506.40268   -506.82739 
 2944000         1472    297.86368    4440.6676     42184.94    18697.761    23487.179    10419.842    20268.256   -3972.6727    418.04372   -2177.4989    1.3133942    56.763475    55.589241    57.915082    182747.48   -499.86772   -526.12165   -323.86257   -506.17193   -507.53507   -506.42563 
 2946000         1473    302.44304    5164.8082     42648.55     18985.22     23663.33    10537.601     20327.52   -4052.4697    394.74352    -2057.984    1.3158269    56.862402    55.743947     57.54728    182409.61   -424.16215   -613.81999   -531.99043   -506.48594   -506.18994   -506.93082 
 2948000         1474    297.42336    4815.6287     42171.65     18670.12     23501.53    10592.957    20152.026   -4022.2963    393.77851   -2128.3612    1.3162543    56.587654     55.81199    57.737431    182350.37   -463.02454   -554.35825   -446.44795   -506.10178   -507.45606   -506.65171 
 2950000         1475    299.38308    4309.3326    42158.113    18793.138    23364.975    10326.604    20319.805   -3995.1293    373.48608   -2158.9498    1.3140401    56.965315    55.633871    57.635237    182657.65    -474.9678   -436.22713   -398.73446   -506.93891   -506.37018   -506.86998 
 2952000         1476    298.28005    4683.1143    42374.733    18723.897    23650.836    10476.526    20269.172   -3926.4772    394.82384   -2085.1074    1.3160778    56.748116    55.822134     57.57143    182374.83   -406.17434   -509.88097   -507.49437   -506.74627   -505.79044   -506.44864 
 2954000         1477    299.71035    5691.6077    42492.912    18813.682     23679.23    10536.805    20230.986   -3928.3089    409.16294   -2094.4467    1.3137729    56.874588    55.789566    57.577782    182694.79   -468.58125   -643.52282   -618.00239   -507.16624   -506.69992   -506.89372 
 2956000         1478    298.74816    4941.5249    42342.045    18753.282    23588.763    10396.868    20218.949   -3898.2147    405.44004   -2047.8106    1.3154374    56.852649    55.915226    57.397835    182463.62   -569.16305   -499.87364   -433.06332   -506.76412   -506.53869   -506.31017 
 2958000         1479    297.11125    4502.1441    42160.034    18650.529    23509.505    10447.803    20402.888   -4042.3517     385.6004   -2200.1909    1.3154709     56.81184    55.852501    57.502105    182458.97   -484.66006   -528.31969   -355.55951   -506.43453   -506.87719    -506.5265 
 2960000         1480    300.25361     5579.566    42481.581    18847.784    23633.797    10326.362    20345.822   -3912.2206    391.32595   -2049.9767    1.3165519    56.703622    55.861601    57.555166    182309.16   -588.68236   -521.44214   -585.92407    -506.8791   -507.29831   -506.26263 
 2962000         1481    294.60686    4389.4047    41948.128    18493.321    23454.807    10475.622    20347.448   -4109.7135    385.74384   -2152.5972    1.3137376    56.714175    55.970853    57.555166    182699.71   -448.44736   -411.71615   -474.10578   -506.56161   -505.30179   -507.31622 
 2964000         1482    299.55758    5514.8236    42395.801    18804.092    23591.709    10452.788    20459.071   -4122.5295    378.23574   -2097.4627    1.3181534    56.940546    55.720378    57.391137    182087.66   -639.92565   -438.49198   -597.95089   -506.59168   -506.79281   -506.08139 
 2966000         1483    295.49912    5536.8915    42201.638     18549.33    23652.308    10591.565    20298.045   -4054.7809    401.61656   -2130.9574    1.3148663    56.946783    55.698322    57.551094    182542.87   -719.54423   -574.59764   -388.93473    -506.4244   -507.17554    -506.5621 
 2968000         1484    297.32866     5181.285    42154.876    18664.176      23490.7    10476.039    20320.199   -4056.0835    403.24864   -2203.3701    1.3158871     56.81972    55.682014    57.651927    182401.27   -462.62166   -545.94405    -566.4154   -507.28208   -506.41094   -506.38608 
 2970000         1485     299.7244    4500.0473     42371.06    18814.563    23556.497    10434.537    20299.278   -4002.8455    404.39667   -2131.2403    1.3159655    56.689724    55.787916    57.670999    182390.39   -498.60568   -442.10127   -427.19494     -505.599    -506.2117   -506.99399 
 2972000         1486    300.28825    4998.7912    42537.542    18849.958    23687.584    10613.355    20180.734   -3993.1526    389.67176   -2055.4406    1.3138941    56.938557    55.766308    57.531772    182677.94   -465.40957   -583.56021   -470.53777   -506.74988   -506.41908   -506.25047 
 2974000         1487    295.23654     3883.704    42286.007    18532.847     23753.16    10513.002    20357.975   -3924.8492    399.33494   -2143.5535    1.3138818    56.727991    55.878253    57.630179    182679.66   -441.86353   -313.56932   -425.11608   -506.79236   -506.59254   -507.20531 
 2976000         1488    295.06851    4522.9121    42065.804      18522.3    23543.505    10462.835    20364.877    -3991.244    385.06095   -2198.2235     1.315965    57.045151    55.646549    57.457293    182390.47    -466.2413   -350.90118   -557.70973   -506.31488   -506.65162   -506.77285 
 2978000         1489    300.90114    5180.9315    42509.807    18888.431    23621.376    10444.076    20361.947    -4082.234    389.26276   -2079.9897    1.3181103    56.628831    55.846934     57.57816    182093.62   -509.65656   -579.96886   -485.24825   -506.62842   -506.55377   -507.03031 
 2980000         1490    298.17316    5345.0519     42262.95    18717.188    23545.762    10427.977    20307.347   -4032.3192    408.68716   -2123.2698    1.3134789    56.739968    55.936297    57.575877    182735.69   -565.47133   -458.16568   -601.12513   -506.41363   -506.70686   -507.22236 
 2982000         1491    296.00941     4717.839    42404.747    18581.363    23823.384    10752.856      20320.7   -4087.7935    412.49511   -2144.5838    1.3104681    56.910848    55.779109    57.697023    183155.53   -414.09342   -506.96502   -513.04668   -506.11385   -506.40762   -506.06946 
 2984000         1492    298.60445    5242.9162    42371.849    18744.261    23627.589    10497.387    20258.807   -3946.5163    403.59763   -2122.8128    1.3179191    56.650659      55.8081    57.604382    182120.03   -563.23869    -538.7093   -491.76744    -506.2297   -507.40074   -506.83719 
 2986000         1493    295.97021    5033.5767    42034.657    18578.902    23455.756    10462.686    20197.887   -4054.8781    391.19921   -2078.0911    1.3160729    56.689626    55.929421    57.520495    182375.52   -507.52438   -459.53433   -563.02277   -506.98384   -506.20406   -506.01591 
 2988000         1494    298.82119     4350.167    42290.438    18757.866    23532.572    10443.813    20347.574   -4041.3755    385.38813   -2143.6046    1.3155885    56.710819    55.910391    57.539748    182442.66   -360.58765   -388.53958   -573.21479   -506.13821   -507.17209    -506.3597 
 2990000         1495    301.64272    5678.9804    42347.448    18934.982    23412.467     10410.12    20246.658   -4065.1272    383.08964    -2081.464    1.3195452    56.613611    55.928057    57.447564     181895.6   -632.51627   -441.40691    -652.3449   -507.15131   -506.12699   -507.06242 
 2992000         1496    296.14063    5035.6204    42117.644      18589.6    23528.044     10446.33    20304.319   -4135.7826    393.88326   -2028.4287    1.3146891    56.778327    55.820287    57.603486    182567.48   -499.69633   -531.64242   -499.36396   -507.54084   -506.26502   -506.66073 
 2994000         1497    299.57274    5286.2174    42469.581    18805.044    23664.538    10399.222     20371.53   -3980.7508     388.5239   -2056.0542     1.318648    56.956631    55.709592    57.364515    182019.37   -451.79718   -552.01958   -603.06119   -506.45947   -506.32419   -505.63765 
 2996000         1498    298.98633    5046.6534    42238.648    18768.233    23470.415    10430.473    20286.461    -4082.535    388.84143   -2102.8644    1.3148926    56.944949    55.772556    57.475193    182539.22   -502.95767   -640.24228   -390.85652   -506.55852   -506.19752   -506.55014 
 2998000         1499    296.77535     4266.835    42104.644    18629.443    23475.201     10415.81    20397.984   -4064.6942    377.05028   -2188.8541    1.3135035    56.852365    55.609684     57.79846    182732.26   -387.39226   -501.43236   -408.18655   -506.88699   -506.91478   -507.14182 
 3000000         1500    299.83956     3990.037    42325.497    18821.793    23503.704    10426.782     20243.96   -3984.5212    384.98865   -2120.2393     1.313174    56.771001    55.722277    57.778838    182778.12   -423.22418   -342.48746   -447.15987   -506.46239   -507.08496   -506.58125 
Loop time of 49358.6 on 16 procs for 2000000 steps with 21060 atoms

Performance: 1.750 ns/day, 13.711 hours/ns, 40.520 timesteps/s
100.0% CPU use with 16 MPI tasks x no OpenMP threads

MPI task timing breakdown:
Section |  min time  |  avg time  |  max time  |%varavg| %total
---------------------------------------------------------------
Pair    | 35112      | 36911      | 38265      | 425.4 | 74.78
Bond    | 6628.2     | 6778.7     | 6965       |  98.0 | 13.73
Kspace  | 1849.6     | 3232.5     | 5169.9     |1490.9 |  6.55
Neigh   | 1443.7     | 1444.3     | 1444.9     |   1.0 |  2.93
Comm    | 617.82     | 631.53     | 646.74     |  29.4 |  1.28
Output  | 26.278     | 26.285     | 26.382     |   0.5 |  0.05
Modify  | 257.83     | 265.47     | 271.04     |  23.0 |  0.54
Other   |            | 68.86      |            |       |  0.14

Nlocal:        1316.25 ave        1333 max        1296 min
Histogram: 2 1 0 2 3 1 1 1 3 2
Nghost:        14072.4 ave       14119 max       14018 min
Histogram: 2 1 0 2 0 3 4 1 1 2
Neighs:        871115.0 ave      890544 max      836630 min
Histogram: 1 0 0 0 2 3 4 2 2 2

Total # of neighbors = 13937847
Ave neighs/atom = 661.81610
Ave special neighs/atom = 5.8048433
Neighbor list builds = 52263
Dangerous builds = 0

#-------------------Wrap up-------------------
write_data      ${myid}.data
write_data      BulkM_EPON_862_rep_1_IFF.data
System init for write_data ...
PPPM initialization ...
  using 12-bit tables for long-range coulomb (../kspace.cpp:340)
  G vector (1/distance) = 0.16531595
  grid = 12 12 12
  stencil order = 5
  estimated absolute RMS force accuracy = 0.024985375
  estimated relative force accuracy = 7.5242715e-05
  using double precision KISS FFT
  3d grid and FFT values/proc = 968 108
write_restart   ${myid}.restart
write_restart   BulkM_EPON_862_rep_1_IFF.restart
System init for write_restart ...
PPPM initialization ...
  using 12-bit tables for long-range coulomb (../kspace.cpp:340)
  G vector (1/distance) = 0.16531595
  grid = 12 12 12
  stencil order = 5
  estimated absolute RMS force accuracy = 0.024985375
  estimated relative force accuracy = 7.5242715e-05
  using double precision KISS FFT
  3d grid and FFT values/proc = 968 108
Total wall time: 20:04:08
