thermo_style   custom step pe ke temp etotal evdwl press pxx pyy pzz v_etrue v_eengx v_eengy v_eengz v_sxx v_syy v_szz f_sxx_ave f_syy_ave                f_szz_ave v_etruex v_etruey v_etruez lx ly lz v_dir vol density ebond eangle edihed eimp bonds angles dihedrals impropers
restart        100000 rst1.a.${myid} rst2.a.${myid}
restart        100000 rst1.a.tensile_L10_rep_1_2_full_xld_erate_2e8_IFF-RX0 rst2.a.${myid}
restart        100000 rst1.a.tensile_L10_rep_1_2_full_xld_erate_2e8_IFF-RX0 rst2.a.tensile_L10_rep_1_2_full_xld_erate_2e8_IFF-RX0
dump           6 all atom 10000 dump.${myid} #every picosecond
dump           6 all atom 10000 dump.tensile_L10_rep_1_2_full_xld_erate_2e8_IFF-RX0 
dump_modify    6 scale no sort id

#-------------------Run-------------------
timestep       ${mytimestep}
timestep       0.1
run            ${steps}
run            5000000
PPPM initialization ...
  using 12-bit tables for long-range coulomb (../kspace.cpp:342)
  G vector (1/distance) = 0.18084032
  grid = 16 16 15
  stencil order = 5
  estimated absolute RMS force accuracy = 0.028769211
  estimated relative force accuracy = 8.6637625e-05
  using double precision KISS FFT
  3d grid and FFT values/proc = 1521 256
Generated 45 of 45 mixed pair_coeff terms from sixthpower/sixthpower mixing rule
Neighbor list info ...
  update: every = 1 steps, delay = 0 steps, check = yes
  max neighbors/atom: 5000, page size: 100000
  master list distance cutoff = 14
  ghost atom cutoff = 14
  binsize = 7, bins = 10 10 8
  1 neighbor lists, perpetual/occasional/extra = 1 0 0
  (1) pair lj/class2/coul/long, perpetual
      attributes: half, newton on
      pair build: half/bin/newton
      stencil: half/bin/3d
      bin: standard
WARNING: Inconsistent image flags (../domain.cpp:815)
Per MPI rank memory allocation (min/avg/max) = 21.41 | 21.44 | 21.81 Mbytes
   Step         PotEng         KinEng          Temp          TotEng         E_vdwl         Press           Pxx            Pyy            Pzz          v_etrue        v_eengx        v_eengy        v_eengz         v_sxx          v_syy          v_szz        f_sxx_ave      f_syy_ave      f_szz_ave       v_etruex       v_etruey       v_etruez          Lx             Ly             Lz           v_dir          Volume        Density         E_bond        E_angle        E_dihed        E_impro        Bonds      Angles      Diheds      Impros   
         0  -1298895.3      17821.59       298           -1281073.7     -844.74462     -200.76934      302.51748     -860.79651     -44.028982      0             -6.6003242e-16  1.123047e-16  -9.1307983e-16 -30.652584      87.220207      4.4612366      0              0              0             -6.6613381e-16  2.220446e-16  -8.8817842e-16  64.591622      63.269191      54.472774      2              222611.69      1.2360703     -1276044.3      12635.042      8663.0366      893.71016          21924       36303       53175       13773 
      2000  -1299296.9      17923.126      299.69782     -1281373.8     -882.59159     -389.00976     -554.72848     -371.7278      -240.573        3.99992e-05    0.00098012529  4e-05          0.00041036967  56.206407      37.66389       24.374591     -12.508381      31.929048     -4.8883252      0.00097964528  3.99992e-05    0.00041028549  64.654929      63.271721      54.495128      2              222930.23      1.2343041     -1276130.2      12509.016      8560.4993      874.99519          21924       36303       53175       13773 
      4000  -1299070.7      17725.763      296.39765     -1281345       -740.28707     -635.4559      -948.16509     -521.53001     -436.67259      7.99968e-05    0.0027546496   8e-05          0.00054464598  96.073613      52.844805      44.246623      0.91676833     44.199096      8.2691726      0.0027508625   7.99968e-05    0.00054449771  64.769549      63.274252      54.502443      2              223364.35      1.2319052     -1276148        12576.886      8581.1992      906.24642          21924       36303       53175       13773 
      6000  -1299060.6      17883.589      299.03671     -1281177       -929.16747     -571.41317     -410.44454     -159.94709     -1143.8479      0.0001199928   0.0048402505   0.00012        0.00060807204  41.589412      16.207775      115.90153      4.1736334      11.253441      9.569219       0.0048285741   0.0001199928   0.00060788724  64.904261      63.276783      54.505898      2              223852.06      1.2292212     -1276060.4      12633.05       8569.5925      918.08122          21924       36303       53175       13773 
      8000  -1298836.4      17864.393      298.71572     -1280972       -764.49563     -735.97955     -856.74371     -801.38955     -549.80538      0.0001599872   0.0057356241   0.00016       -0.0018261746   86.810403      81.201638      55.709868      8.3666229      16.489548      20.362672      0.005719238    0.0001599872  -0.0018278441   64.962095      63.279314      54.373297      2              223515.4       1.2310727     -1275907.3      12576.474      8576.2556      899.98405          21924       36303       53175       13773 
     10000  -1299083.6      17856.963      298.59148     -1281226.7     -821.86683     -114.22544     -537.84599      877.57577     -682.40612      0.00019998     0.0063842307   0.0002        -0.0035177093   54.494865     -88.922753      69.14239      -5.6846223      8.8896766     -19.641059      0.0063639378   0.00019998    -0.003523911    65.003989      63.281844      54.281155      2              223289.46      1.2323184     -1276036.6      12602.041      8499.6206      886.59829          21924       36303       53175       13773 
     12000  -1299132.6      17827.76       298.10317     -1281304.8     -881.08807     -566.74065     -1653.5587      71.854805     -118.51811      0.0002399712   0.0069997852   0.00024       -0.0037669468   167.54785     -7.2796752      12.009853      0.5739976     -14.044697     -18.226585      0.0069754005   0.0002399712  -0.0037740596   65.043749      63.284375      54.267578      2              223379.08      1.231824      -1275957        12633.976      8422.3893      885.63628          21924       36303       53175       13773 
     14000  -1298899.5      17947.987      300.11353     -1280951.5     -840.32441     -315.00974     -1044.8252     -567.51926      667.31526      0.00027996081  0.0075732932   0.00028       -0.0049088155   105.86815      57.505121     -67.614498      10.585295      21.828642      8.384315       0.0075447598   0.00027996081 -0.0049209033   65.080793      63.286906      54.205377      2              223259.05      1.2324862     -1275911.2      12632.413      8523.419       916.95003          21924       36303       53175       13773 
     16000  -1299071.7      17760.4        296.97683     -1281311.3     -810.87422     -492.32014      150.79017     -182.6303      -1445.1203      0.00031994881  0.0072398373   0.00032       -0.0054904796  -15.279839      18.504003      146.42579     -6.7485734      15.293473      8.7113963      0.0072137555   0.00031994881 -0.0055056077   65.059254      63.289437      54.173693      2              223063.62      1.233566      -1276050.1      12596.53       8519.5452      896.0366           21924       36303       53175       13773 
     18000  -1299070.3      17885.834      299.07424     -1281184.5     -831.22294     -217.7989      -464.60328      104.74699     -293.54042      0.00035993522  0.0076220613   0.00036       -0.006723988    47.077463     -10.611977      29.744505     -7.2496855      10.860656     -3.778517       0.0075931601   0.00035993522 -0.0067466959   65.083943      63.291968      54.1065        2              222880.41      1.23458       -1276050.6      12560.33       8593.2944      883.25944          21924       36303       53175       13773 
     20000  -1298969.5      17886.838      299.09104     -1281082.7     -855.45411     -454.3374       0.13484349    -1169.9487     -193.19832      0.00039992002  0.0076606365   0.0004        -0.0070647765  -0.015270542    118.54351      19.574221      5.5970474      43.258592     -14.649359      0.0076314428   0.00039992002 -0.0070898502   65.086434      63.294498      54.087936      2              222821.38      1.2349071     -1276102.4      12733.316      8578.0127      896.18961          21924       36303       53175       13773 
     22000  -1299083.5      17671.356      295.4879      -1281412.2     -917.80358     -396.92944      118.40304     -527.96777     -781.22358      0.00043990323  0.0062872703   0.00044       -0.0061734992  -11.996826      53.496694      79.157842      13.649175      24.576477      4.0490806      0.0062675879   0.00043990323 -0.006192634    64.997727      63.297029      54.136487      2              222726.33      1.2354341     -1276068.7      12677.176      8581.0154      888.33039          21924       36303       53175       13773 
     24000  -1299022.1      17829.125      298.12599     -1281193       -750.21615      1127.0687      1836.4079      516.12323      1028.675       0.00047988484  0.0038176077   0.00048       -0.0050310115  -186.07253     -52.294654     -104.22899     -5.4266565      5.1171954     -32.061852      0.0038103391   0.00047988484 -0.0050437096   64.838207      63.29956       54.198721      2              222444.01      1.2370021     -1276068.7      12639.696      8529.2014      887.33412          21924       36303       53175       13773 
     26000  -1298942.7      17812.459      297.84732     -1281130.2     -895.99636     -634.90419     -1193.7438      463.29849     -1174.2673      0.00051986485  0.002611599    0.00052       -1.375706e-05   120.95558     -46.944225      118.98212     -10.597504      8.508479      -14.199535      0.0026081947   0.00051986485 -1.3757155e-05  64.760309      63.302091      54.472025      2              223306.05      1.2322268     -1275976.3      12664.399      8588.3275      894.99728          21924       36303       53175       13773 
     28000  -1299076.4      17874.874      298.89098     -1281201.5     -867.06202     -205.78296      591.03445     -1230.1406      21.757251      0.00055984326  0.0022042207   0.00056        0.0028160017  -59.88688       124.64368     -2.2048666     -6.8609847      14.948812      25.804336      0.002201795    0.00055984326  0.0028120442   64.733996      63.304621      54.62617       2              223855.92      1.2292        -1276055.8      12610.666      8579.4059      890.96184          21924       36303       53175       13773 
     30000  -1299050.2      17919.933      299.64444     -1281130.3     -835.93581     -631.35243      41.780667     -965.25082     -970.58714      0.00059982007  0.0011765018   0.0006         0.0029929819  -4.2322071      97.805271      98.345978      30.001985      22.810288      16.072426      0.0011758102   0.00059982007  0.0029885119   64.667614      63.307152      54.63581       2              223674.77      1.2301955     -1276041.4      12539.743      8587.7249      914.77447          21924       36303       53175       13773 
     32000  -1299098.5      17995.255      300.90391     -1281103.2     -784.56244     -365.61275     -766.91485      102.28148     -432.20488      0.00063979529 -0.00056420786  0.00064        0.0028525096   77.705258     -10.366076      43.790766     -12.647606     -9.5535731     -11.343189     -0.00056436709  0.00063979529  0.0028484489   64.555178      63.309683      54.628158      2              223263.53      1.2324615     -1276030        12556.673      8491.0252      885.06197          21924       36303       53175       13773 
     34000  -1299031.7      17691.276      295.82098     -1281340.4     -853.9143      -399.36882      1118.065      -1116.2878     -1199.8837      0.0006797689  -0.00074404482  0.00068        0.0023343623  -113.28711      113.10867      121.57905     -15.148189      39.624967      23.686881     -0.00074432176  0.0006797689   0.0023316419   64.543562      63.312214      54.599933      2              223116.94      1.2332712     -1276059.7      12532.134      8657.5298      897.47867          21924       36303       53175       13773 
     36000  -1298896        17769.087      297.12208     -1281126.9     -874.30978     -1211.5098     -911.02313     -1188.3217     -1535.1845      0.00071974092  3.94302e-05    0.00072        0.0015937556   92.309679      120.40696      155.55283      4.0772763      43.181978     -10.265131      3.9429423e-05  0.00071974092  0.001592487    64.594168      63.314744      54.55959       2              223135.81      1.2331669     -1275951.4      12619.242      8601.7795      903.2912           21924       36303       53175       13773 
     38000  -1299154.7      17699.223      295.95387     -1281455.5     -844.0994       242.68811     -133.24074      526.6864       334.61868      0.00075971135  0.00075626471  0.00076        0.00076018455  13.498626     -53.368478     -33.90718       5.9661324      21.545048      0.51346558     0.00075597889  0.00075971135  0.00075989575  64.64047       63.317275      54.514184      2              223118.84      1.2332608     -1276034.4      12557.481      8496.3757      895.422            21924       36303       53175       13773 
     40000  -1299116.1      17844.838      298.38874     -1281271.2     -869.69266     -1136.9671      102.03968     -1285.6909     -2227.25        0.00079968017  0.00056828949  0.0008         1.8545305e-05 -10.336851      130.27485      225.67835     -3.938975       15.22731       7.206468       0.00056812807  0.00079968017  1.8545133e-05  64.628328      63.319806      54.473784      2              222920.52      1.2343579     -1276075.5      12514.035      8643.4531      887.0513           21924       36303       53175       13773 
     42000  -1298920.4      17801.867      297.67021     -1281118.5     -780.7549      -281.76574      346.19278     -262.35158     -929.13841      0.0008396474   0.0021404773   0.00084       -0.00067239386 -35.078042      26.582716      94.144891     -9.1200893      27.032218      1.521207       0.0021381897   0.0008396474  -0.00067262002  64.729878      63.322337      54.436147      2              223125.45      1.2332242     -1275929.6      12575.578      8515.1585      907.92424          21924       36303       53175       13773 
     44000  -1299235.1      17748.723      296.78157     -1281486.4     -824.54562     -1163.6756     -1532.656      -561.52189     -1396.8489      0.00087961303  0.0049909965   0.00088       -0.00028262172  155.29552      56.895368      141.53488     -4.3454362     -14.430809     -24.980389      0.0049785828   0.00087961303 -0.00028266167  64.913998      63.324868      54.457379      2              223856.33      1.2291978     -1276145.3      12617.93       8437.3897      881.28859          21924       36303       53175       13773 
     46000  -1299103.2      17816.38       297.9129      -1281286.9     -868.28381     -605.66828      189.89125     -154.07219     -1852.8239      0.00091957706  0.0048163818   0.00092       -0.00051343086 -19.239567      15.612527      187.73853      19.271563      17.29816       5.3917412      0.0048048201   0.00091957706 -0.00051356271  64.902719      63.327398      54.444806      2              223774.71      1.2296461     -1276014.4      12547.915      8555.3723      876.21433          21924       36303       53175       13773 
     48000  -1298965.3      17834.145      298.20994     -1281131.1     -794.18237      176.24592      132.33222      281.92269      114.48287      0.00095953949  0.004569267    0.00096       -3.8219896e-05 -13.408323     -28.565576     -11.599732      1.3118122     -2.1267298      3.3158168      0.0045588596   0.00095953949 -3.8220627e-05  64.886758      63.329929      54.470692      2              223834.99      1.229315      -1276070.7      12583.131      8675.4739      889.59169          21924       36303       53175       13773 
     50000  -1299047        17774.103      297.20596     -1281272.9     -797.73807     -262.37457     -401.93388     -643.61608      258.42626      0.00099950033  0.0033866952   0.001         -0.00058928504  40.723777      65.212265     -26.187219      17.155604      25.793209      21.0469        0.0033809733   0.00099950033 -0.00058945874  64.810374      63.33246       54.440674      2              223457.21      1.2313933     -1276055.1      12595.636      8544.8188      886.91621          21924       36303       53175       13773 
     52000  -1299214.9      17784.574      297.38104     -1281430.3     -746.59337     -90.417491     -398.5659      -16.717064      144.03049      0.0010394596   0.0014688943   0.00104       -0.0027146007   40.386124      1.695259      -14.59249      -9.3093902      17.083026     -3.8556448      0.0014678165   0.0010394596  -0.002718292    64.6865        63.334991      54.324902      2              222564.72      1.2363312     -1276087.1      12436.209      8536.8973      865.14203          21924       36303       53175       13773 
     54000  -1299098.2      17994.73       300.89514     -1281103.5     -876.40715     -60.208976     -76.891504      10.478047     -114.21347      0.0010794172   0.0010551455   0.00108       -0.0042111576   7.7905891     -1.0621232      11.57223      -8.4687279     -1.1648579     -1.5149601      0.0010545892   0.0010794172  -0.0042200495   64.659775      63.337521      54.243381      2              222147.79      1.2386515     -1276047.3      12655.695      8538.808       884.82132          21924       36303       53175       13773 
     56000  -1299259.9      17904.212      299.38156     -1281355.7     -894.34491     -390.42112     -623.33137     -702.75125      154.81926      0.0011193733   0.0010135366   0.00112       -0.0040598172   63.158325      71.205545     -15.687788     -0.82190924     12.874002     -21.95783       0.0010130234   0.0011193733  -0.0040680806   64.657088      63.340052      54.251625      2              222181.2       1.2384653     -1276184        12615.29       8555.919       892.967            21924       36303       53175       13773 
     58000  -1299031.2      17949.513      300.13905     -1281081.7     -837.50006      155.81128      590.09317      402.85543     -525.51476      0.0011593277   0.00082416034  0.00116       -0.0025052789  -59.786549     -40.814702      53.252407     -1.0703632      10.210115      3.5574978      0.00082382091  0.0011593277  -0.0025084223   64.644855      63.342583      54.336305      2              222494.79      1.2367198     -1275936.4      12610.58       8512.3221      877.1437           21924       36303       53175       13773 
     60000  -1299025.7      17924.087      299.71389     -1281101.7     -746.68835      128.51007     -390.99085      111.6897       664.83137      0.0011992806   0.0015831982   0.0012        -0.0016432464   39.615147     -11.318973     -67.366025     -6.8953685      1.5541002      1.0357418      0.0015819463   0.0011992806  -0.001644598    64.693883      63.345114      54.383262      2              222864.86      1.2346662     -1276063.7      12625.681      8493.4579      894.42696          21924       36303       53175       13773 
     62000  -1298964.1      17637.768      294.92626     -1281326.3     -769.85815     -256.74021     -290.50975     -158.59544     -321.11545      0.0012392318   0.003353229    0.00124       -0.00044253181  29.436004      16.069784      32.537127     -3.9262112      9.1360193     -7.6737343      0.0033476194   0.0012392318  -0.00044262976  64.808212      63.347644      54.448668      2              223536.15      1.2309584     -1275945        12508.21       8567.3348      869.7033           21924       36303       53175       13773 
     64000  -1298846.7      17895.976      299.24384     -1280950.8     -787.78595     -133.50808     -201.82676      94.778181     -293.47565      0.0012791815   0.003193008    0.00128        0.00024914373  20.451299     -9.6022075      29.737623      7.8741417      7.4326787      2.4372209      0.0031879212   0.0012791815   0.0002491127   64.797863      63.350175      54.486346      2              223664.05      1.2302545     -1276050.9      12706.481      8606.0502      905.37315          21924       36303       53175       13773 
     66000  -1298979.9      17858.869      298.62335     -1281121       -741.52846      502.54251      1010.8443      423.38146      73.401784      0.0013191296   0.0025678036   0.00132        8.9048628e-05 -102.42526     -42.900594     -7.438881       4.1903074      23.375115      15.363806      0.0025645124   0.0013191296   8.9044664e-05  64.75748       63.352706      54.477625      2              223497.81      1.2311696     -1276093.7      12647.717      8525.0415      896.66815          21924       36303       53175       13773 
     68000  -1299069.5      17801.077      297.657       -1281268.4     -711.97927      173.54963     -697.9121       443.28859      775.27241      0.001359076    0.0020147411   0.00136       -0.00093673387  70.715871     -44.916288     -78.554549     -3.0200872      10.924951     -0.64525471     0.0020127142   0.001359076   -0.00093717288  64.721757      63.355237      54.421748      2              223154.32      1.2330646     -1276090.2      12615.337      8474.9312      869.47093          21924       36303       53175       13773 
     70000  -1299170.5      17858.529      298.61768     -1281312       -803.46687      412.61645      562.01855      698.13785     -22.307068      0.0013990209   0.0021410815   0.0014        -0.0018693433  -56.946883     -70.739166      2.2599152     -18.167536      19.316742      4.7130394      0.0021387926   0.0013990209  -0.0018710927   64.729917      63.357767      54.370946      2              222983.03      1.2340119     -1276130.7      12600.948      8507.673       869.57328          21924       36303       53175       13773 
     72000  -1299051.2      17888.75       299.123       -1281162.4     -805.85649      737.775        768.80216      699.38914      745.13369      0.0014389642   0.0037567025   0.00144       -0.0035728204  -77.896894     -70.863642     -75.498728      3.386256       16.702384     -1.3838546      0.0037496637   0.0014389642  -0.0035792182   64.834273      63.360298      54.278153      2              222970.25      1.2340826     -1276101.8      12562.985      8650.3929      900.67738          21924       36303       53175       13773 
     74000  -1298973.8      17873.072      298.86085     -1281100.7     -776.45574      708.7423      -585.72231      1994.832       717.11722      0.0014789059   0.005671295    0.00148       -0.0040064191   59.345957     -202.12871     -72.664241     -1.3699509      4.5775418     -14.043725      0.0056552738   0.0014789059  -0.0040144663   64.95794       63.362829      54.254533      2              223307.26      1.2322202     -1276046.1      12612.041      8583.2621      887.29725          21924       36303       53175       13773 
     76000  -1299019.1      17641.656      294.99127     -1281377.4     -833.06217     -36.131948     -860.42654      841.64209     -89.611386      0.001518846    0.006189815    0.00152       -0.0030555586   87.183526     -85.278575      9.0806877      22.581668      10.98164       2.4414356      0.0061707368   0.001518846   -0.0030602364   64.991432      63.36536       54.306329      2              223644.62      1.2303614     -1276047.7      12648.011      8528.3727      888.53818          21924       36303       53175       13773 
     78000  -1298953.2      17813.074      297.8576      -1281140.2     -775.23649     -311.06226      464.16928     -431.24289     -966.11318      0.0015587845   0.0041006293   0.00156       -0.0020399627  -47.031236      43.6964        97.892141      14.270117      28.308453     -5.1464237      0.0040922446   0.0015587845  -0.0020420462   64.856488      63.367891      54.361652      2              223416.54      1.2316174     -1276046.1      12702.459      8481.4027      903.28557          21924       36303       53175       13773 
     80000  -1299086.4      17698.755      295.94605     -1281387.7     -770.09844      256.16952     -332.39563      57.667462      1043.2367      0.0015987214   0.0023496184   0.0016        -0.0022037285   33.67699      -5.8461308     -105.70897     -25.816788      17.899782      6.5236376      0.0023468624   0.0015987214  -0.0022061603   64.743387      63.370421      54.352731      2              222999.24      1.2339222     -1276153.2      12655.109      8515.6731      891.05235          21924       36303       53175       13773 
     82000  -1299190.3      17774.266      297.20869     -1281416.1     -821.69037      136.89517     -5.9081588      511.56659     -94.972914      0.0016386567   0.0027290845   0.00164       -0.0012054213   0.6000553     -51.833118      9.6245         3.9452852      18.885238     -8.47115        0.0027253673   0.0016386567  -0.0012061484   64.767898      63.372952      54.407112      2              223315.78      1.2321731     -1276078        12530.948      8515.5794      884.97091          21924       36303       53175       13773 
     84000  -1298946.7      17820.312      297.97864     -1281126.4     -794.72471     -74.051667      34.75141      -237.23494     -19.671471      0.0016785904   0.0025421449   0.00168       -0.0014800452  -3.5199139      24.039124      1.9945049      4.869848       9.4664791      10.733831      0.0025389191   0.0016785904  -0.0014811415   64.755823      63.375483      54.392152      2              223221.67      1.2326926     -1276132.9      12701.798      8600.2915      905.20234          21924       36303       53175       13773 
     86000  -1299157.3      17907.678      299.43951     -1281249.6     -710.79032      569.76722      477.61313      729.57603      502.11249      0.0017185225   0.002261925    0.00172       -0.0025073534  -48.397762     -73.927847     -50.880142      3.0342845      31.365496      13.754091      0.0022593707   0.0017185225  -0.0025105021   64.737723      63.378014      54.336192      2              222938.58      1.2342579     -1276121        12545.665      8495.929       896.91853          21924       36303       53175       13773 
     88000  -1299095.4      17727.532      296.42724     -1281367.9     -784.88448     -65.719488      320.59704     -656.57244      138.81694      0.001758453    0.0019294981   0.00176       -0.0024278847  -32.483291      66.528376     -14.064444     -0.044771651    26.115319     -10.609507      0.001927639    0.001758453   -0.0024308368   64.716251      63.380544      54.340521      2              222891.3       1.2345197     -1276045.3      12571.6        8493.2171      870.18952          21924       36303       53175       13773 
     90000  -1299050.9      17912.93       299.52732     -1281138       -884.35401     -1028.7129     -189.38246     -1173.0787     -1723.6775      0.0017983819   0.0025113102   0.0018        -0.0021736755   19.189555      118.86257      174.652       -14.237834      10.968062     -12.54822       0.0025081622   0.0017983819  -0.0021760414   64.753831      63.383075      54.354368      2              223086.47      1.2334397     -1276074.5      12719.036      8512.7998      885.41538          21924       36303       53175       13773 
     92000  -1299124.8      17758.697      296.94836     -1281366.1     -947.38999     -536.09523     -291.98066     -1723.1944      406.88939      0.0018383093   0.0032380827   0.00184       -0.0023845094   29.580533      174.59835     -41.232447      0.8611227      23.746824      5.6270685      0.0032328514   0.0018383093  -0.0023873569   64.800775      63.385606      54.342883      2              223209.93      1.2327574     -1276124.4      12630.224      8608.969       900.41959          21924       36303       53175       13773 
     94000  -1299163.9      17768.16       297.10659     -1281395.8     -825.2278      -1301.5861     -891.14839     -1185.4265     -1828.1835      0.001878235    0.0038045482   0.00188       -0.0023862419   90.298062      120.11576      185.24308     -1.4926031      36.006568     -10.554428      0.0037973292   0.001878235   -0.0023890935   64.837363      63.388137      54.342789      2              223344.5       1.2320147     -1276098.7      12565.906      8538.4643      885.21553          21924       36303       53175       13773 
     96000  -1299031.2      17889.899      299.14222     -1281141.3     -727.65634     -719.06755     -145.37091     -1307.421      -704.41076      0.0019181592   0.0045933587   0.00192       -0.0017438338   14.730195      132.47491      71.374902     -8.4342181      43.38198       4.8318362      0.0045828415   0.0019181592  -0.0017453561   64.888314      63.390667      54.377783      2              223672.87      1.230206      -1276033.4      12510.513      8539.247       893.34124          21924       36303       53175       13773 
     98000  -1299031.2      17690.51       295.80818     -1281340.7     -825.10895     -720.03044     -281.23313     -1122.9104     -755.94777      0.0019580817   0.0055408757   0.00196       -0.0019162246   28.492714      113.77569      76.593172      18.466716      22.500804      17.641812      0.0055255815   0.0019580817  -0.001918063    64.949516      63.393198      54.368392      2              223854.11      1.22921       -1276058.2      12620.271      8534.7921      904.88244          21924       36303       53175       13773 
    100000  -1299215.4      17827.752      298.10303     -1281387.7     -786.52643     -434.70876     -73.753201     -860.06383     -370.30926      0.0019980027   0.0056021959   0.002         -0.0031275153   7.4746822      87.147592      37.523202      2.120639       7.9887379     -3.7751871      0.0055865619   0.0019980027  -0.0031324162   64.953476      63.395729      54.30241       2              223605         1.2305794     -1276167.8      12578.956      8495.6285      914.63194          21924       36303       53175       13773 
    102000  -1299139.7      17908.753      299.45749     -1281230.9     -813.79242     -544.99234     -317.33944     -987.83503     -329.80255      0.002037922    0.0041683336   0.00204       -0.0050933305   32.154801      100.09275      33.417616      9.0552666      10.959171      12.605594      0.0041596702   0.002037922   -0.0051063457   64.860861      63.39826       54.195326      2              222854.74      1.2347222     -1276119        12633.127      8500.2622      887.31146          21924       36303       53175       13773 
    104000  -1298959        17821.977      298.00647     -1281137       -779.19665      1008.0063      1065.6821      946.69358      1011.6432      0.0020778398   0.0023787248   0.00208       -0.006398316   -107.9799      -95.923387     -102.50441     -1.2289609      21.29809      -24.02704       0.0023759001   0.0020778398  -0.0064188729   64.745267      63.400791      54.12424       2              222174.65      1.2385018     -1276130.1      12742.426      8593.2591      896.28188          21924       36303       53175       13773 
    106000  -1299114.6      17948.148      300.11623     -1281166.4     -900.51743     -155.5655      -67.404023     -761.87077      362.5783       0.002117756    0.0028665872   0.00212       -0.0057743855   6.8280376      77.194901     -36.739889     -17.955478      14.350517     -16.885682      0.0028624863   0.002117756   -0.0057911217   64.776779      63.403321      54.158227      2              222431.25      1.2370731     -1276049.8      12628.433      8559.2443      892.7409           21924       36303       53175       13773 
    108000  -1299089        17691.756      295.82901     -1281397.2     -803.73401     -285.45086     -148.16138     -92.878138     -615.31305      0.0021576706   0.0039199186   0.00216       -0.0040078503   15.01358       9.411989       62.347683     -1.4756319     -8.5271299      6.0453931      0.0039122557   0.0021576706  -0.0040159032   64.844815      63.405852      54.254455      2              223069.41      1.233534      -1276068        12611.789      8513.7933      895.31737          21924       36303       53175       13773 
    110000  -1299012.1      17902.748      299.35708     -1281109.4     -918.88405     -68.723378     -366.85094      138.04601      22.634798      0.0021975835   0.0055001942   0.0022        -0.0024141819   37.171235     -13.987447     -2.2934057     -17.642917      20.206217      3.0046783      0.0054851233   0.0021975835  -0.0024171008   64.946888      63.408383      54.341267      2              223786.96      1.2295788     -1275959.1      12583.878      8590.3654      898.87438          21924       36303       53175       13773 
    112000  -1299015.2      17782.023      297.3384      -1281233.1     -770.35292     -311.89283     -57.830242     -327.46525     -550.383        0.0022374949   0.0065307869   0.00224       -0.0025989926   5.8588558      33.179617      55.766769      19.873767      15.020992      28.03449       0.0065095537   0.0022374949  -0.0026023759   65.013456      63.410914      54.3312        2              223983.77      1.2284984     -1276185.9      12752.897      8489.2961      913.35037          21924       36303       53175       13773 
    114000  -1299335.5      17765.229      297.05758     -1281570.3     -733.24955      404.84595      270.77086      392.03899      551.728        0.0022774047   0.0062750106   0.00228       -0.0056679413  -27.43701      -39.72451      -55.904991      21.251829      52.360035      14.993149      0.0062554047   0.0022774047  -0.0056840651   64.996935      63.413444      54.164026      2              223246.75      1.2325541     -1276242.3      12475.182      8526.7746      866.70176          21924       36303       53175       13773 
    116000  -1299136.4      17928.801      299.7927      -1281207.6     -859.77375      104.16183     -545.96601      1093.481      -235.0295       0.002317313    0.0062102472   0.00232       -0.0079450484   55.320691     -110.7963       23.815042     -14.28025       4.1682197     -22.106366      0.0061910431   0.002317313   -0.0079767785   64.992751      63.415975      54.039985      2              222730.05      1.2354135     -1276101.6      12531.308      8610.4592      907.0238           21924       36303       53175       13773 
    118000  -1299051.4      17832.893      298.18901     -1281218.5     -824.37332      317.26321      431.43826      691.80102     -171.44964      0.0023572196   0.0061762345   0.00236       -0.0091813851  -43.71584      -70.09709       17.371776     -8.2022787      5.021686      -12.739177      0.0061572397   0.0023572196  -0.0092237938   64.990555      63.418506      53.972639      2              222453.84      1.2369474     -1276072.5      12654.677      8545.2236      889.53128          21924       36303       53175       13773 
    120000  -1299209.8      17754.523      296.87857     -1281455.3     -838.07139     -240.95004      368.32751     -442.89617     -648.28145      0.0023971246   0.006250941    0.0024        -0.0086645885  -37.321263      44.875978      65.68664       12.156852      18.34691      -15.675662      0.0062314849   0.0023971246  -0.0087023443   64.99538       63.421037      54.00079       2              222595.27      1.2361615     -1276191.6      12658.175      8503.2439      885.05308          21924       36303       53175       13773 
    122000  -1298997.1      17914.303      299.55028     -1281082.8     -738.77699     -185.05796      325.69996     -179.40377     -701.47006      0.002437028    0.006432524    0.00244       -0.0065405778  -33.000471      18.179159      71.077527     -6.5529222     -11.122385     -7.6745403      0.0064119236   0.002437028   -0.0065620612   65.007109      63.423567      54.116491      2              223121.36      1.2332468     -1276014.5      12588.21       8536.5687      879.07569          21924       36303       53175       13773 
    124000  -1299159.6      17948.908      300.12893     -1281210.7     -873.57617     -289.03125     -481.58876     -404.32881      18.823831      0.0024769299   0.005916723    0.00248       -0.0040930407   48.795251      40.96687      -1.9090932      15.100438      33.198609     -7.9287531      0.005899288    0.0024769299  -0.0041014401   64.973792      63.426098      54.249815      2              223565.34      1.2307977     -1276027.8      12576.75       8513.8198      873.29457          21924       36303       53175       13773 
    126000  -1299029.6      17685.225      295.71981     -1281344.4     -831.79367     -241.25144     -298.24477     -641.94546      216.43591      0.0025168301   0.0042053609   0.00252       -0.0024958957   30.221203      65.046658     -21.92882       17.027484      36.676932      19.158841      0.004196543    0.0025168301  -0.0024990156   64.863253      63.428629      54.336816      2              223551.83      1.2308721     -1276062        12656.65       8574.4705      869.86073          21924       36303       53175       13773 
    128000  -1298990.8      17995.565      300.90909     -1280995.2     -854.6078      -490.92844      443.49341     -1283.3655     -632.91323      0.0025567288   0.00088153183  0.00256       -0.0023438674  -44.938251      130.03575      64.128679      4.2933612      27.450553      12.533326      0.00088114351  0.0025567288  -0.0023466186   64.648561      63.43116       54.345097      2              222854.74      1.2347222     -1275956.8      12576.26       8586.5713      876.33682          21924       36303       53175       13773 
    130000  -1299057.6      17732.018      296.50225     -1281325.5     -767.94724      363.60224      198.62904      355.42412      536.75356      0.0025966258  -0.00075720851  0.0026        -0.0033788563  -20.126844     -36.014114     -54.387319     -33.394512      34.187789      11.836052     -0.00075749534  0.0025966258  -0.0033845775   64.542712      63.433691      54.288718      2              222267.92      1.2379821     -1276082.9      12603.885      8548.753       884.73909          21924       36303       53175       13773 
    132000  -1298951.5      17762.237      297.00754     -1281189.2     -805.5912      -234.81268      598.72232     -1103.9067     -199.25366      0.0026365213  -0.00027996428  0.00264       -0.0029329111  -60.662625      111.85621      20.192341      3.1202909     -0.21133469    -20.170792     -0.00028000347  0.0026365213  -0.0029372205   64.573538      63.436221      54.31301       2              222482.45      1.2367883     -1276042.8      12695.303      8553.3083      888.38856          21924       36303       53175       13773 
    134000  -1298888.9      17868.447      298.78352     -1281020.5     -811.82439      706.46631      1413.4441     -772.45601      1478.4108      0.0026764152   0.00069497948  0.00268       -0.0010484267  -143.21857      78.267761     -149.80132      3.2875413      14.515361     -13.503145      0.00069473809  0.0026764152  -0.0010489767   64.636511      63.438752      54.415663      2              223129.23      1.2332033     -1275994.6      12657.689      8601.1253      896.71239          21924       36303       53175       13773 
    136000  -1298952.8      17717.587      296.26095     -1281235.2     -794.18344     -394.45072      259.04787     -704.89941     -737.50063      0.0027163075   0.0023012865   0.00272        9.9845254e-05 -26.248751      71.423206      74.726528     -2.3398546      46.36879       19.549587      0.0022986426   0.0027163075   9.9840269e-05  64.740265      63.441283      54.478213      2              223753.22      1.2297642     -1276060.8      12671.094      8553.6369      901.21404          21924       36303       53175       13773 
    138000  -1298962.3      17701.754      295.9962      -1281260.5     -711.6044       515.45064     -513.3119       885.10434      1174.5595      0.0027561982   0.0020538743   0.00276       -0.0010071746   52.012918     -89.681618     -119.01064      3.4124244      5.2726384      16.838949      0.0020517679   0.0027561982  -0.0010076821   64.724285      63.443814      54.417911      2              223459.28      1.2313818     -1276120.3      12667.821      8542.2597      897.85419          21924       36303       53175       13773 
    140000  -1298934.4      17952.264      300.18504     -1280982.2     -840.55869     -698.52669     -228.01577     -877.93842     -989.62587      0.0027960873   0.0031744214   0.0028        -0.0019576813   23.102873      88.956263      100.273       -11.933766      7.6801198     -4.0392001      0.0031693935   0.0027960873  -0.0019596      64.796663      63.446344      54.366134      2              223505.23      1.2311287     -1276003.4      12692.816      8529.4621      890.68032          21924       36303       53175       13773 
    142000  -1299195.9      17893.68       299.20545     -1281302.2     -802.9481       488.88188     -25.705236      385.01656      1107.3343      0.0028359748   0.0034556001   0.00284       -0.0038617519   2.6044026     -39.011982     -112.20082      12.122034      18.052549      7.0200588      0.0034496432   0.0028359748  -0.0038692277   64.814824      63.448875      54.262414      2              223150.25      1.2330871     -1276177        12559.776      8532.2783      883.30027          21924       36303       53175       13773 
    144000  -1299130.9      17917.626      299.60584     -1281213.3     -838.1331      -777.14655     -510.55854     -576.81518     -1244.0659      0.0028758607   0.0036253878   0.00288       -0.0055667846   51.7338        58.447257      126.05645     -13.08011       3.8253989     -4.5891042      0.003618832    0.0028758607  -0.0055823369   64.825791      63.451406      54.169536      2              222814.88      1.2349431     -1276016.2      12712.519      8381.0377      867.41617          21924       36303       53175       13773 
    146000  -1298968.1      18060.215      301.99013     -1280907.9     -845.93716     -489.12321      510.00024     -895.55564     -1081.8142      0.0029157451   0.0042114551   0.00292       -0.0061672523  -51.676906      90.741033      109.61369      7.2974247      20.027808     -6.3819527      0.0042026117   0.0029157451  -0.0061863483   64.863646      63.453937      54.136827      2              222819.26      1.2349189     -1276083.2      12669.364      8588.9132      919.06888          21924       36303       53175       13773 
    148000  -1299011.2      17798.136      297.60782     -1281213       -827.231       -619.87242     -200.21658     -615.05856     -1044.3421      0.0029556278   0.004340714    0.00296       -0.0066869531   20.286581      62.320446      105.8176       11.06942       39.369801      6.5792971      0.0043313203   0.0029556278  -0.0067094109   64.871995      63.456467      54.108517      2              222740.29      1.2353567     -1276031.2      12560.378      8582.4377      895.99377          21924       36303       53175       13773 
    150000  -1299202.6      17999.133      300.96876     -1281203.4     -823.40693     -759.91004     -818.64816     -805.45536     -655.62661      0.002995509    0.0048847355   0.003         -0.0064142796   82.94977       81.613012      66.431614     -28.608353      21.521127     -19.760481      0.0048728439   0.002995509   -0.0064349395   64.907135      63.458998      54.123371      2              222931.01      1.2342998     -1276063.2      12557.505      8440.2438      892.6754           21924       36303       53175       13773 
    152000  -1299054        17880.564      298.98613     -1281173.4     -761.47246      78.550222      298.49252      20.954623     -83.796474      0.0030353885   0.0066957633   0.00304       -0.0047700654  -30.245029     -2.123505       8.4903998      16.450257      39.302638     -3.6030135      0.0066734463   0.0030353885  -0.0047814784   65.024112      63.461529      54.212935      2              223711.28      1.2299948     -1276207        12709.355      8553.3384      883.58402          21924       36303       53175       13773 
    154000  -1299097.2      17789.107      297.45685     -1281308.1     -759.70054      524.45017      259.51361      367.59987      946.23703      0.0030752665   0.0079789985   0.00308       -0.0044282646  -26.294658     -37.246494     -95.876917      0.30184917     40.954307      7.5943402      0.0079473346   0.0030752665  -0.0044380984   65.106998      63.46406       54.231554      2              224082.31      1.2279582     -1276164.9      12644.027      8560.8189      869.39004          21924       36303       53175       13773 
    156000  -1298848.5      17881.558      299.00276     -1280966.9     -875.41727      682.07083      1053.6306      202.11928      790.46261      0.0031151429   0.0070671099   0.00312       -0.0060248608  -106.75888     -20.479497     -80.09339       22.331822      21.227515      32.36503       0.0070422549   0.0031151429  -0.0060430835   65.048098      63.466591      54.144583      2              223529.47      1.2309952     -1275973        12801.623      8517.3208      879.70482          21924       36303       53175       13773 
    158000  -1299042.9      17847.332      298.43045     -1281195.5     -804.18617      284.27493     -721.23589      963.05373      611.00695      0.0031550177   0.0046154265   0.00316       -0.0080640672   73.078485     -97.582177     -61.911038     -1.5961226      19.907467     -24.111385      0.0046048081   0.0031550177  -0.0080967577   64.889739      63.469121      54.033502      2              222536.69      1.2364869     -1276081.5      12703.574      8486.4415      866.58282          21924       36303       53175       13773 
    160000  -1299101.6      17757.109      296.92179     -1281344.5     -785.46619      532.54752      691.92525      265.21221      640.5051       0.0031948909   0.0028675859   0.0032        -0.0083886392  -70.109733     -26.873029     -64.899587     -6.8316298      18.399431     -18.30227       0.0028634822   0.0031948909  -0.0084240218   64.776844      63.471652      54.015822      2              222085.69      1.2389979     -1276080.4      12626.153      8512.1429      870.95055          21924       36303       53175       13773 
    162000  -1299080.6      17971.448      300.50583     -1281109.2     -860.6354       93.31837      -343.93744      884.70504     -260.8125       0.0032347625   0.0035498563   0.00324       -0.0066597324   34.852656     -89.639536      26.430072     -35.02608       12.523755      2.5438214      0.0035435704   0.0032347625  -0.0066820074   64.820913      63.474183      54.11          2              222633.13      1.2359513     -1276060.5      12724.862      8460.8375      882.80397          21924       36303       53175       13773 
    164000  -1298818.1      17702.6        296.01034     -1281115.5     -768.50698      1052.9232      1292.9582      964.39886      901.41243      0.0032746325   0.0050036906   0.00328       -0.0058924744  -131.01119     -97.71994      -91.33781       25.176506      19.825616     -9.7997773      0.0049912137   0.0032746325  -0.0059099035   64.914818      63.476714      54.151795      2              223136.77      1.2331617     -1276024.1      12666.595      8643.2614      906.53356          21924       36303       53175       13773 
    166000  -1299170.2      17856.61       298.58559     -1281313.6     -801.73977      391.8271       29.699422      538.08082      607.70106      0.003314501    0.0048358995   0.00332       -0.0038937449  -3.0095072     -54.521255     -61.575522      12.870513      31.540701     -3.8828887      0.0048242441   0.003314501   -0.0039013453   64.90398       63.479244      54.260671      2              223556.98      1.2308437     -1276105.8      12551.843      8516.1848      911.75263          21924       36303       53175       13773 
    168000  -1299061.8      17861.323      298.66439     -1281200.5     -798.60331      397.61274      206.74976      595.12486      390.96361      0.0033543678   0.0040141986   0.00336       -0.0019659072  -20.948419     -60.300533     -39.613881     -1.5995946      19.508152     -9.4396146      0.0040061632   0.0033543678  -0.0019678421   64.850905      63.481775      54.365686      2              223815.4       1.2294225     -1276093.6      12584.294      8585.113       883.52185          21924       36303       53175       13773 
    170000  -1298866.6      17661.438      295.32206     -1281205.1     -755.17951     -472.38301     -582.24834     -980.94624      146.04555      0.0033942331   0.0026940508   0.0034        -0.0010009703   58.996034      99.394091     -14.798348      7.1826188      18.060801      21.657395      0.0026904284   0.0033942331  -0.0010014716   64.765635      63.484306      54.418249      2              223746.14      1.2298031     -1276009.5      12667.02       8560.4614      900.73884          21924       36303       53175       13773 
    172000  -1299186.2      17818.054      297.94088     -1281368.2     -775.14408      36.406548      429.21297     -125.77329     -194.22003      0.0034340967   0.00078648849  0.00344       -0.0016762524  -43.49303       12.740974      19.676368      12.891374      38.357038      18.443591      0.00078617937  0.0034340967  -0.0016776589   64.642422      63.486837      54.381464      2              223178.42      1.2329315     -1276114.4      12665.599      8366.1806      899.85312          21924       36303       53175       13773 
    174000  -1299164.3      17696.53       295.90884     -1281467.8     -855.03725      299.32267      488.40463     -350.94609      760.50946      0.0034739588  -0.00056225155  0.00348       -0.0035880521  -49.484562      35.562623     -77.055586     -12.085213      3.2625171     -4.3175839     -0.00056240967  0.0034739588  -0.0035945046   64.555305      63.489367      54.277323      2              222459.7       1.2369148     -1276082.7      12694.415      8485.4196      860.43033          21924       36303       53175       13773 
    176000  -1299062.9      17860.778      298.65528     -1281202.2     -840.31856     -196.03532     -180.39132      279.59903     -687.31368      0.0035138193  -0.00016816206  0.00352       -0.0032106553   18.278476     -28.330041      69.642385     -28.324402     -19.275487     -22.256693     -0.0001681762   0.0035138193  -0.0032158205   64.58076       63.491898      54.297881      2              222640.59      1.2359099     -1276023.4      12593.051      8573.0686      887.97611          21924       36303       53175       13773 
    178000  -1298897.3      17760.217      296.97377     -1281137.1     -871.02257     -748.16187     -927.43569      209.30966     -1526.3596      0.0035536782   0.0017575412   0.00356       -0.0018330635   93.972711     -21.20801       154.65867     -3.1367009      15.419445     -6.8908098      0.0017559985   0.0035536782  -0.0018347456   64.705144      63.494429      54.372922      2              223386.59      1.2317825     -1275981        12655.563      8649.8472      881.96564          21924       36303       53175       13773 
    180000  -1298981.2      17729.031      296.4523      -1281252.2     -801.857       -466.42934      67.556463     -801.1069      -665.73759      0.0035935355   0.0019177252   0.0036        -0.001391104   -6.8464697      81.170842      67.454542      7.3129014      31.69645       9.8034599      0.0019158887   0.0035935355  -0.0013920724   64.715491      63.49696       54.396997      2              223530.15      1.2309915     -1275988        12640.65       8517.8016      897.22438          21924       36303       53175       13773 
    182000  -1298963.2      17665.306      295.38674     -1281297.9     -780.30082     -521.21215     -509.57278     -320.19643     -733.86725      0.0036333912   0.0015571854   0.00364       -0.0022174718   51.633739      32.44517       74.360366      7.0457674      22.031974      26.354711      0.0015559743   0.0036333912  -0.002219934    64.692203      63.49949       54.351982      2              223273.7       1.2324054     -1275981.1      12539.508      8591.5306      923.32718          21924       36303       53175       13773 
    184000  -1298931.6      17947.035      300.09761     -1280984.6     -824.96209     -818.90337     -290.97642     -903.64215     -1262.0915      0.0036732454   0.0017936369   0.00368       -0.0031308452   29.483194      91.56155       127.88143     -4.6233809      8.4923707     -13.462475      0.0017920303   0.0036732454  -0.0031357566   64.707475      63.502021      54.302228      2              223130.87      1.2331942     -1275974        12679.881      8493.6951      900.89594          21924       36303       53175       13773 
    186000  -1299186.8      17812.686      297.85112     -1281374.1     -812.89327     -1393.55       -1589.6196     -1692.7309     -898.29953      0.0037130979   0.0026515625   0.00372       -0.004433523    161.06733      171.51508      91.019317     -8.4285645     -10.161419     -2.0499911      0.0026480533   0.0037130979  -0.0044433802   64.76289       63.504552      54.231268      2              223039.01      1.2337021     -1276074.6      12561.053      8479.8349      885.06872          21924       36303       53175       13773 
    188000  -1299091.7      17882.818      299.02382     -1281208.9     -851.32585     -1134.2753     -651.57804     -809.61044     -1941.6375      0.0037529489   0.0031118312   0.00376       -0.0051538773   66.022756      82.035456      196.73801      4.553545       3.7774607     -8.9293569      0.0031069995   0.0037529489  -0.0051672044   64.79262       63.507083      54.192028      2              222988.83      1.2339798     -1276021.7      12494.613      8617.3168      873.74497          21924       36303       53175       13773 
    190000  -1298971.9      17872.264      298.84735     -1281099.6     -848.01305     -1547.7906     -711.32603     -2596.3805     -1335.6652      0.0037927982   0.0028378137   0.0038        -0.0051523619   72.0746        263.07776      135.33577      2.3086995      4.1594276     -5.4085279      0.0028337948   0.0037927982  -0.0051656811   64.774921      63.509614      54.192111      2              222937.14      1.2342659     -1276084.7      12654.753      8580.6194      908.92502          21924       36303       53175       13773 
    192000  -1299096.3      17641.867      294.99481     -1281454.4     -875.94954     -480.60333     -408.02443     -1096.8818      63.09621       0.003832646    0.0019093999   0.00384       -0.005245857    41.342447      111.14092     -6.3938529      13.053129      25.243809      10.370301      0.0019075794   0.003832646   -0.0052596648   64.714953      63.512144      54.187018      2              222718.69      1.2354765     -1275997.8      12556.745      8560.3897      891.62932          21924       36303       53175       13773 
    194000  -1299008.8      17837.704      298.26945     -1281171.1     -855.64537     -21.925621      235.86875     -705.74031      404.0947       0.0038724922   0.0012913267   0.00388       -0.0063466336  -23.897745      71.510759     -40.943251     -19.620977      5.9642966     -5.7467674      0.0012904937   0.0038724922  -0.0063668591   64.67503       63.514675      54.127055      2              222343.85      1.2375593     -1276035.5      12597.672      8637.1334      895.6602           21924       36303       53175       13773 
    196000  -1298972.8      17756.443      296.91066     -1281216.4     -756.10101     -172.82713     -400.7234      -1053.087       935.32903      0.0039123368   0.0021233295   0.00392       -0.0061343326   40.602592      106.70335     -94.772902      3.7104863      20.635313     -13.29747       0.0021210785   0.0039123368  -0.0061532249   64.728771      63.517206      54.13862       2              222585.02      1.2362184     -1276038.7      12587.145      8581.2431      904.4789           21924       36303       53175       13773 
    198000  -1299189.7      17745.793      296.73258     -1281443.9     -916.64979      555.87925      568.0548      -129.35786      1228.9408      0.0039521798   0.0024877962   0.00396       -0.0046525133  -57.56127       13.10401      -124.52563      9.166558       37.455741      6.1662383      0.0024847067   0.0039521798  -0.0046633699   64.752312      63.519737      54.219339      2              223006.84      1.2338801     -1276095.2      12604.342      8551.9038      891.61627          21924       36303       53175       13773 
    200000  -1299093.4      17724.919      296.38354     -1281368.4     -963.22262     -487.28085     -1089.438      -407.10082      34.696271      0.0039920213   0.0025004297   0.004         -0.0036653218   110.39016      41.252252     -3.5128351      0.5584059      20.104627      2.4655944      0.0024973088   0.0039920213  -0.0036720556   64.753128      63.522267      54.273114      2              223239.73      1.2325929     -1276064.2      12670.518      8573.6581      893.76887          21924       36303       53175       13773 
    202000  -1298898.7      17735.82       296.56582     -1281162.8     -860.25717      314.84165     -184.65177      1157.3063     -28.129593      0.0040318611   0.0017536208   0.00404       -0.0031939476   18.710636     -117.26326      2.8510111      1.3129503      12.557607     -0.44084021     0.001752085    0.0040318611  -0.0031990591   64.704891      63.524798      54.298791      2              223187.86      1.2328794     -1275955        12711.051      8580.3818      894.4887           21924       36303       53175       13773 
    204000  -1299070.6      18037.333      301.60751     -1281033.3     -868.87231     -478.90076     -720.78253     -526.04297     -189.87679      0.0040716994   0.00062407951  0.00408       -0.002368329    73.033708      53.301719      19.239687      0.37458088     10.706296      7.3474492      0.00062388486  0.0040716994  -0.002371138    64.631932      63.527329      54.343765      2              223129.74      1.2332005     -1276045.1      12659.011      8521.9039      881.53618          21924       36303       53175       13773 
    206000  -1299021.4      17718.321      296.27321     -1281303.1     -807.74952     -138.08971     -558.18335      620.06672     -476.15251      0.004111536   -0.00031602422  0.00412       -0.0020594543   56.556058     -62.830158      48.244245     -7.3611104      18.304627      8.3006147     -0.00031607416  0.004111536   -0.0020615779   64.571209      63.52986       54.36059       2              222998         1.233929      -1275986.3      12564.237      8560.0628      866.60316          21924       36303       53175       13773 
    208000  -1299059.8      17751.459      296.82732     -1281308.3     -893.13202     -129.50959     -377.08266      403.4191      -414.86522      0.0041513711  -5.6529143e-06  0.00416       -0.002160398    38.210111     -40.87423       42.038427     -21.408012      4.4516401     -13.757515     -5.6529303e-06  0.0041513711  -0.002162735    64.591256      63.53239       54.355091      2              223053.56      1.2336217     -1276041.6      12619.355      8588.7425      874.46793          21924       36303       53175       13773 
    210000  -1298888.1      17867.228      298.76313     -1281020.9     -851.29381     -689.26173     -1166.2166      587.4864      -1489.055       0.0041912046   0.00066642649  0.0042        -0.0025883909   118.1659      -59.528069      150.87747      8.2369653      47.602312      22.503         0.00066620452  0.0041912046  -0.0025917466   64.634667      63.534921      54.331777      2              223116.62      1.233273      -1275900.1      12582.418      8599.0283      877.16936          21924       36303       53175       13773 
    212000  -1298977.5      17741.311      296.65763     -1281236.2     -786.6249      -313.15935      27.280239     -1918.5965      951.83819      0.0042310365   0.0018422495   0.00424       -0.0040156846  -2.7646496      194.4013      -96.445477     -9.5181978      16.844297      7.6743853      0.0018405547   0.0042310365  -0.0040237691   64.710615      63.537452      54.254029      2              223068.02      1.2335417     -1276074.3      12677.574      8503.7971      906.84139          21924       36303       53175       13773 
    214000  -1299049.9      17891.753      299.17322     -1281158.1     -829.29923     -804.60333     -854.67675     -1088.7114     -470.42189      0.0042708669   0.0045871425   0.00428       -0.0048127109   86.603204      110.31677      47.668584      7.9878078      36.060989     -15.574214      0.0045766536   0.0042708669  -0.0048243293   64.887913      63.539983      54.210612      2              223509.1       1.2311074     -1275976        12611.314      8516.0122      877.76563          21924       36303       53175       13773 
    216000  -1298989.7      18070.839      302.16777     -1280918.9     -825.94598     -185.95054     -172.752        379.92453     -765.02416      0.0043106956   0.0051767982   0.00432       -0.0052044661   17.502137     -38.497858      77.514055      30.010119      16.182016     -2.4003545      0.0051634446   0.0043106956  -0.0052180565   64.925999      63.542514      54.189272      2              223561.16      1.2308207     -1275978.4      12653.865      8524.3839      887.48139          21924       36303       53175       13773 
    218000  -1299126.3      17881.716      299.00539     -1281244.6     -952.84039     -244.54825     -579.70904     -362.57401      208.6383       0.0043505227   0.0035676225   0.00436       -0.0054581413   58.738882      36.737672     -21.140413      10.699543      5.5621218     -6.5541215      0.0035612736   0.0043505227  -0.0054730914   64.82206       63.545044      54.175454      2              223155.23      1.2330596     -1276061.4      12524.37       8706.7322      888.01375          21924       36303       53175       13773 
    220000  -1298951.7      17799.303      297.62735     -1281152.4     -871.89472     -376.95937     -974.33173     -339.77741      183.23104      0.0043903483   0.0010482765   0.0044        -0.0053917812   98.725392      34.429149     -18.564664     -7.0044805      34.29907       3.4584208      0.0010477274   0.0043903483  -0.0054063693   64.659331      63.547575      54.179069      2              222618.74      1.2360312     -1275901.2      12564.627      8606.0215      887.55381          21924       36303       53175       13773 
    222000  -1299012.6      18050.843      301.83341     -1280961.7     -843.38489     -342.67535     -17.822813      162.16534     -1172.3686      0.0044301723   0.0018461789   0.00444       -0.0047566535   1.8045613     -16.432716      118.78892     -37.679064      11.866529     -16.430277      0.0018444768   0.0044301723  -0.0047680024   64.710869      63.550106      54.213666      2              222947.34      1.2342094     -1275963.3      12555.144      8579.6929      893.19635          21924       36303       53175       13773 
    224000  -1298875.9      17586.424      294.06772     -1281289.5     -804.82618     -1063.639      -729.53919     -1210.2523     -1251.1256      0.0044699947   0.003542493    0.00448       -0.0040569848   73.920525      122.62878      126.77026      14.428074      26.568268      14.912831      0.0035362332   0.0044699947  -0.0040652367   64.820437      63.552637      54.251779      2              223490.73      1.2312086     -1275939.3      12588.953      8608.5133      897.73048          21924       36303       53175       13773 
    226000  -1298992.6      17904.989      299.39455     -1281087.6     -820.41141     -341.2965      -242.46983     -232.87008     -548.54959      0.0045098155   0.0047134623   0.00452       -0.0041911725   24.568708      23.596013      55.582241     -8.1142903      5.9847356     -0.12418897     0.0047023887   0.0045098155  -0.0041999801   64.896072      63.555167      54.244469      2              223730.27      1.2298904     -1276033.9      12656.837      8560.7174      890.96857          21924       36303       53175       13773 
    228000  -1299054.5      17635.493      294.88822     -1281419       -801.2841      -274.53241     -425.71514     -282.9563      -114.92578      0.0045496347   0.0051445895   0.00456       -0.0037988684   43.134132      28.669078      11.643392      10.708276      40.932076     -15.361537      0.0051314013   0.0045496347  -0.0038061024   64.923919      63.557698      54.265839      2              223923.36      1.2288298     -1276204.2      12665.73       8590.9284      891.1794           21924       36303       53175       13773 
    230000  -1299190.5      17969.057      300.46585     -1281221.5     -772.33801      126.6593       298.65872      661.51213     -580.19294      0.0045894523   0.0030410336   0.0046        -0.0034725113  -30.259392     -67.025528      58.790303      30.782326      36.989328      14.195277      0.003036419    0.0045894523  -0.0034785545   64.788047      63.560229      54.283617      2              223536.84      1.2309546     -1276123.5      12542.165      8508.8483      867.91533          21924       36303       53175       13773 
    232000  -1299190.2      18036.495      301.5935      -1281153.7     -745.04335      498.60003      453.8893       250.35611      791.55469      0.0046292684  -0.00088626384  0.00464       -0.0042189484  -45.991072     -25.368068     -80.205012     -3.4189937      8.3676826     -3.8075166     -0.00088665681  0.0046292684  -0.0042278732   64.534376      63.56276       54.242956      2              222503.69      1.2366703     -1276224.2      12549.432      8537.9626      902.7053           21924       36303       53175       13773 
    234000  -1299230.1      17816.661      297.91759     -1281413.5     -823.67706     -659.58212     -472.35507     -686.68276     -819.70855      0.0046690828  -0.0025890951   0.00468       -0.0030571737   47.858871      69.575678      83.054443     -19.814641      8.5936776     -21.201116     -0.0025924526   0.0046690828  -0.0030618564   64.424388      63.56529       54.306241      2              222392.47      1.2372888     -1276085.2      12518.532      8501.9073      880.59224          21924       36303       53175       13773 
    236000  -1299220.7      17663.313      295.35341     -1281557.4     -820.48881     -593.64846     -896.54797     -771.13055     -113.26685      0.0047088957  -0.0025975731   0.00472       -0.0016006163   90.8456        78.137682      11.479725     -7.9688112      11.811461      9.058631      -0.0026009527   0.0047088957  -0.0016018986   64.42384       63.567821      54.385584      2              222724.37      1.235445      -1276187.4      12547.154      8578.3584      875.69097          21924       36303       53175       13773 
    238000  -1299018.6      17832.995      298.19071     -1281185.6     -918.9894      -872.57062     -1350.2405     -1427.2474      159.776        0.004748707   -0.0020673013   0.00476       -0.0011813131   136.81409      144.6168      -16.188337     -8.6766769      19.281631      3.1486821     -0.0020694411   0.004748707   -0.0011820114   64.458091      63.570352      54.408425      2              222945.24      1.234221      -1276022.9      12639.793      8589.9447      896.72223          21924       36303       53175       13773 
    240000  -1298980.1      17857.975      298.60841     -1281122.1     -812.13287      596.36698      950.53167      858.06513     -19.495867      0.0047885167  -0.00071217716  0.0048        -0.001661584   -96.313367     -86.944184      1.9746857     -7.0362622      50.457485      21.282591     -0.00071243088  0.0047885167  -0.001662966    64.545621      63.572883      54.382263      2              223149.52      1.2330912     -1276048.4      12632.531      8572.1915      885.95593          21924       36303       53175       13773 
    242000  -1299057.9      17610.112      294.46382     -1281447.8     -703.75984      80.842876     -68.194169      97.455705      213.26709      0.0048283249  -0.00024230989  0.00484       -0.0021308886   6.9096787     -9.8747931     -21.609382      4.3232012      29.564424     -20.411284     -0.00024233926  0.0048283249  -0.0021331622   64.57597       63.575414      54.356699      2              223158.38      1.2330422     -1276165.5      12596.474      8553.5286      890.20372          21924       36303       53175       13773 
    244000  -1299094        17916.735      299.59095     -1281177.3     -786.19407      157.88657      108.6726       214.53826      150.44885      0.0048681314   0.00090985471  0.00488       -0.0027744106  -11.010188     -21.737042     -15.243184      0.092514185    25.335557      28.240664      0.00090944104  0.0048681314  -0.0027782664   64.650391      63.577944      54.321644      2              223280.37      1.2323685     -1276150.6      12651.503      8546.2661      874.01008          21924       36303       53175       13773 
    246000  -1298926.8      17706.551      296.07641     -1281220.2     -824.64276     -222.97805     -464.77022     -387.09896      182.93502      0.0049079364   0.0016147322   0.00492       -0.004324885    47.092254      39.222205     -18.536477      6.1199777      23.825785      14.574172      0.0016134299   0.0049079364  -0.0043342643   64.69592       63.580475      54.237186      2              223099.09      1.2333699     -1276082.5      12741.078      8547.4852      896.11362          21924       36303       53175       13773 
    248000  -1299088.8      17780.505      297.31302     -1281308.3     -803.00923      187.6329       346.3196       3.6804324      212.89866      0.0049477397   0.0024762778   0.00496       -0.0055424237  -35.091498     -0.37358158    -21.572625     -35.26436       16.512727     -21.495619      0.0024732169   0.0049477397  -0.0055578399   64.751568      63.583006      54.170863      2              223026.82      1.2337695     -1276066.7      12568.942      8502.7587      897.94937          21924       36303       53175       13773 
    250000  -1299080.6      17776.915      297.25299     -1281303.7     -771.71493     -418.93596     -1115.7393     -764.50746      623.43887      0.0049875415   0.0027548455   0.005         -0.0058100411   113.0532       77.464632     -63.16903       29.040963      30.051841     -6.6333215      0.0027510578   0.0049875415  -0.0058269851   64.769561      63.585537      54.156285      2              223037.64      1.2337097     -1276014.9      12486.182      8526.9429      897.15266          21924       36303       53175       13773 
    252000  -1298892.8      17872.344      298.84869     -1281020.4     -857.46181     -354.38175     -434.65262     -507.39523     -121.09739      0.0050273417   0.0021162663   0.00504       -0.0051894408   44.04127       51.411912      12.270285     -4.7128439      12.100063      3.5581293      0.0021140302   0.0050273417  -0.0052029528   64.728315      63.588067      54.190091      2              223043.62      1.2336766     -1276021.2      12669.276      8605.354       919.34243          21924       36303       53175       13773 
    254000  -1299196.3      17801.298      297.66069     -1281395       -844.38007      143.66699      30.396939     -138.53191      539.13594      0.0050671403   0.0021800362   0.00508       -0.0046479651  -3.0813286      14.035378     -54.629355     -15.488758      34.081135     -7.9716494      0.0021776634   0.0050671403  -0.0046588005   64.732434      63.590598      54.219587      2              223188.11      1.232878      -1276163.1      12628.02       8505.9646      921.12184          21924       36303       53175       13773 
    256000  -1299038.6      17755.426      296.89366     -1281283.2     -880.11732     -727.2277      -1203.3446     -798.14424     -180.19427      0.0051069374   0.002488361    0.00512       -0.0037702511   121.92991      80.873         18.25921       11.628197      51.008223      5.0276671      0.0024852702   0.0051069374  -0.0037773764   64.752349      63.593129      54.267398      2              223462.53      1.2313639     -1275983        12640.371      8519.6366      905.8825           21924       36303       53175       13773 
    258000  -1298879        17814.641      297.88381     -1281064.4     -777.78262      62.906492      530.59445     -798.72094      456.84597      0.0051467328   0.0019676912   0.00516       -0.0042247656  -53.761249      80.931627     -46.288685      21.506699      49.379795      11.779798      0.0019657578   0.0051467328  -0.0042337151   64.718718      63.59566       54.242639      2              223253.46      1.2325171     -1275977.4      12715.692      8481.0161      920.73776          21924       36303       53175       13773 
    260000  -1298803.1      18001.514      301.00856     -1280801.6     -866.13539     -668.94462     -316.99305      98.725995     -1788.5668      0.0051865267   0.0008203512   0.0052        -0.005151227    32.118409     -10.004313      181.22562     -12.164408      37.664448      7.3450369      0.00082001489  0.0051865267  -0.0051645404   64.644609      63.59819       54.192173      2              222799.2       1.23503       -1276019        12655.339      8717.0809      917.85848          21924       36303       53175       13773 
    262000  -1299025.7      17799.342      297.62798     -1281226.3     -876.69819      473.36678      814.13889      374.24559      231.71584      0.005226319    0.00093095548  0.00524       -0.0062713324  -82.493616     -37.921422     -23.479611     -22.660392     -9.4993886     -7.2829633      0.00093052241  0.005226319   -0.0062910798   64.651753      63.600721      54.131157      2              222581.81      1.2362363     -1276027.8      12638.627      8567.9195      917.18955          21924       36303       53175       13773 
    264000  -1299129.4      17738.438      296.6096      -1281391       -877.52101      85.415494      173.62665     -128.89434      211.51418      0.0052661097   0.0033734797   0.00528       -0.0066246699  -17.592953      13.059988     -21.431904      0.61543572     12.156495      0.86619678     0.0033678023   0.0052661097  -0.0066467104   64.80952       63.603252      54.11191       2              223054.5       1.2336165     -1276167.9      12670.809      8558.9931      903.85203          21924       36303       53175       13773 
    266000  -1298900.3      17861.333      298.66456     -1281039       -821.97088      275.88314     -231.20832      673.82323      385.03452      0.0053058988   0.0048711477   0.00532       -0.008467721    23.428448     -68.273887     -39.012357     -1.1354181      26.119054      18.307601      0.0048593221   0.0053058988  -0.0085037758   64.906257      63.605783      54.011514      2              222981.85      1.2340184     -1276029        12626.714      8611.1483      924.52566          21924       36303       53175       13773 
    268000  -1299084.7      17891.446      299.16809     -1281193.2     -898.25069      506.58095     -80.166607      478.67002      1121.2394      0.0053456863   0.0056246751   0.00536       -0.010453822    8.1204892     -48.503622     -113.61195      12.207693      40.194081     -9.3550427      0.0056089156   0.0053456863  -0.010508847    64.954928      63.608313      53.903325      2              222710.94      1.2355195     -1276060.8      12665.558      8533.5307      906.90133          21924       36303       53175       13773 
    270000  -1299131.3      17813.817      297.87004     -1281317.5     -816.33535      38.269521      148.92756      834.05469     -868.17369      0.0053854723   0.0060828845   0.0054        -0.011697594   -15.089351     -84.509862      87.968424      1.4728164      4.87889       -12.459041      0.0060644584   0.0053854723  -0.01176655     64.984525      63.610844      53.835574      2              222541.21      1.2364618     -1276072.7      12631.266      8463.8226      889.51679          21924       36303       53175       13773 
    272000  -1298926.4      17805.279      297.72727     -1281121.1     -774.31664      187.23175      936.82842     -462.70711      87.573937      0.0054252566   0.0065602046   0.00544       -0.010857789   -94.923216      46.884726     -8.8724999     -12.494045     -4.6545353     -37.469253      0.0065387801   0.0054252566  -0.010917165    65.015356      63.613375      53.88132       2              222844.85      1.234777      -1275926.4      12567.784      8536.1455      910.46204          21924       36303       53175       13773 
    274000  -1298915.8      17880.792      298.98993     -1281035       -683.55625      48.800392     -540.42491      384.57687      302.24921      0.0054650394   0.0067019674   0.00548       -0.0086148732   54.757474     -38.968354     -30.626508      11.460813      21.448764     -1.8070234      0.0066796091   0.0054650394  -0.0086521957   65.024512      63.615906      54.003498      2              223390.51      1.231761      -1275975.3      12625.648      8510.2938      872.9567           21924       36303       53175       13773 
    276000  -1299082.6      17746.472      296.74394     -1281336.1     -931.89618     -348.84845     -369.01273      81.599828     -759.13245      0.0055048206   0.006497978    0.00552       -0.0056526275   37.389286     -8.2690349      76.918163      24.976458      35.685553      16.76318       0.0064769571   0.0055048206  -0.005668664    65.011336      63.618437      54.16486       2              224021.5       1.2282915     -1276114.2      12688.553      8642.9863      887.90536          21924       36303       53175       13773 
    278000  -1298940        17842.475      298.34924     -1281097.5     -877.16391     -509.87231     -73.324791     -412.17952     -1044.1126      0.0055446003   0.0046555538   0.00556       -0.0056143761   7.431752       41.766232      105.79686     -6.3785865      46.832802      31.792736      0.0046447502   0.0055446003  -0.0056301959   64.892331      63.620967      54.166944      2              223628.92      1.2304477     -1275924.6      12661.692      8519.9949      910.20511          21924       36303       53175       13773 
    280000  -1298933.7      17803.581      297.69887     -1281130.1     -851.23595     -179.0221      -320.86275     -44.342757     -171.8608       0.0055843783   0.0035393953   0.0056        -0.0072134932   32.510154      4.4917746      17.412533      2.3048702      6.6849835     -0.29400984     0.0035331464   0.0055843783  -0.0072396363   64.820237      63.623498      54.079835      2              223030.12      1.2337513     -1275924        12638.815      8524.2781      890.69405          21924       36303       53175       13773 
    282000  -1299060.2      17808.169      297.77559     -1281252.1     -752.23675     -313.8757       150.68084     -509.46615     -582.84177      0.0056241548   0.0031847575   0.00564       -0.0066730492  -15.267593      51.621798      59.056582     -7.3375451      26.652368     -19.14219       0.0031796969   0.0056241548  -0.0066954135   64.79733       63.626029      54.109275      2              223081.54      1.2334669     -1275999.1      12564.256      8472.9737      902.95254          21924       36303       53175       13773 
    284000  -1298828.3      17822.658      298.01787     -1281005.6     -800.76753     -417.39785      64.140238     -542.18492     -774.14887      0.0056639296   0.0035283604   0.00568       -0.006242365   -6.4961331      54.939802      78.443532      5.7289719      13.015092      3.474204       0.0035221504   0.0056639296  -0.00626193     64.819524      63.62856       54.132735      2              223263.59      1.2324612     -1275921.8      12556.048      8653.8762      901.41642          21924       36303       53175       13773 
[...]
   4938000  -1298795.6      17630.669      294.80756     -1281165       -675.24765     -659.43697     -343.28167     -1309.0825     -325.94673      0.094182271   -0.027987609    0.09876       -0.047646895    34.784495      132.64431      33.028101      16.802848      124.52319      18.257496     -0.028386727    0.094182271   -0.048819404    62.783856      69.517656      51.877316      2              226423.03      1.2152637     -1276127        12786.842      8550.5896      879.10456          21924       36303       53175       13773 
   4940000  -1298731.4      17816.918      297.92189     -1280914.5     -691.39991     -1349.8112     -1414.8454     -1790.467      -844.12124      0.094218675   -0.02613636     0.0988        -0.048380189    143.35965      181.41952      85.531029     -2.7388382      99.693295     -6.7610008     -0.026483985    0.094218675   -0.049589683    62.903432      69.520187      51.837371      2              226687.85      1.2138441     -1275981.6      12696.332      8589.96        894.1752           21924       36303       53175       13773 
   4942000  -1298701.9      17838.702      298.28614     -1280863.1     -666.3154      -643.72777     -369.08473     -1394.0055     -168.09306      0.094255078   -0.025353147    0.09884       -0.049014946    37.397384      141.24748      17.031903      12.370044      111.5914      -17.037747     -0.025680076    0.094255078   -0.050256933    62.954021      69.522717      51.802794      2              226727.08      1.213634      -1276090.5      12701.461      8678.4374      905.82281          21924       36303       53175       13773 
   4944000  -1298675.6      17603.541      294.35394     -1281072.1     -687.5484      -1308.1497     -995.76265     -1987.2668     -941.41984      0.094291479   -0.024985144    0.09888       -0.049324519    100.89461      201.35877      95.388325      7.9263652      120.2925       17.571487     -0.025302571    0.094291479   -0.050582515    62.977791      69.525248      51.785931      2              226747.11      1.2135269     -1275982.9      12742.031      8574.8151      887.02244          21924       36303       53175       13773 
   4946000  -1298894.5      17974.222      300.5522      -1280920.3     -629.06741     -246.06761     -102.46886     -1629.9717      994.23773      0.094327879   -0.026774874    0.09892       -0.050829749    10.385343      165.15956     -100.73845      13.483066      131.00902      3.0648893     -0.027139851    0.094327879   -0.052167096    62.862189      69.527779      51.703937      2              225980.76      1.2176422     -1276125.7      12540.944      8665.5431      900.15909          21924       36303       53175       13773 
   4948000  -1298781.9      17973.074      300.53302     -1280808.9     -646.47085     -696.92492     -360.91775     -1514.3568     -215.5002       0.094364278   -0.027889022    0.09896       -0.051878342    36.569306      153.44152      21.834873     -20.686511      115.05644     -19.191439     -0.028285307    0.094364278   -0.053272454    62.790224      69.53031       51.646817      2              225480.9       1.2203415     -1276093.8      12637.643      8634.9504      910.21137          21924       36303       53175       13773 
   4950000  -1298978.2      17752.917      296.8517      -1281225.2     -742.86265     -76.295683      205.82301     -191.97368     -242.73638      0.094400675   -0.028779607    0.099         -0.050396831   -20.857503      19.449185      24.592798      10.423451      102.80815     -13.238763     -0.029201861    0.094400675   -0.051711099    62.7327        69.532841      51.727519      2              225634.55      1.2195105     -1276177.6      12610.447      8682.8767      902.70474          21924       36303       53175       13773 
   4952000  -1298846.1      17789.234      297.45897     -1281056.9     -755.25797     -81.401822     -228.803       -503.6222       488.21973      0.094437071   -0.030432141    0.09904       -0.048486293    23.18549       51.031597     -49.466807     -8.9672497      100.60772     -16.213901     -0.030904813    0.094437071   -0.049701186    62.62596       69.535371      51.831591      2              225712.04      1.2190919     -1276114.8      12792.987      8579.9624      895.36092          21924       36303       53175       13773 
   4954000  -1298637.4      17833.841      298.20486     -1280803.6     -718.98264     -234.75664      213.07787     -1617.7591      700.41135      0.094473466   -0.031020555    0.09908       -0.045257991   -21.589934      163.91963     -70.969002      4.7516216      156.12413      1.3215058     -0.03151188     0.094473466   -0.046314123    62.587954      69.537902      52.007446      2              226348.63      1.2156632     -1275962.9      12773.034      8623.265       896.79019          21924       36303       53175       13773 
   4956000  -1298967.7      17830.26       298.14498     -1281137.5     -679.58416     -485.68027     -34.798868     -980.9992      -441.24273      0.09450986    -0.032756142    0.09912       -0.042563646    3.5243326      99.398092      44.707271      9.2442538      96.731178      3.9137125     -0.033304635    0.09450986    -0.043496031    62.475849      69.540433      52.154214      2              226589.07      1.2143732     -1276072.5      12609.158      8510.2749      906.47848          21924       36303       53175       13773 
   4958000  -1298737.2      17701.054      295.98448     -1281036.2     -657.49067     -493.48195     -94.238891     -738.51304     -647.69391      0.094546252   -0.034623807    0.09916       -0.041932032    9.5500812      74.831178      65.62892       3.6527028      153.15885      22.230414     -0.035237417    0.094546252   -0.042836555    62.355214      69.542964      52.18862       2              226308.98      1.2158762     -1276111.5      12762.709      8610.6972      891.19662          21924       36303       53175       13773 
   4960000  -1298835.5      17981.025      300.66596     -1280854.5     -627.17524     -311.87132      680.37793     -1066.6501     -549.34179      0.094582642   -0.035305593    0.0992        -0.042884284   -68.938632      108.07897      55.662722     -31.72469       122.12646      4.9130287     -0.035943904    0.094582642   -0.043830979    62.311176      69.545494      52.136748      2              225932.59      1.2179018     -1276184.6      12705.83       8575.306       894.37618          21924       36303       53175       13773 
   4962000  -1298523.4      17714.634      296.21157     -1280808.8     -681.86414     -580.79731      103.2887      -1884.0819      38.401228      0.094619032   -0.033602986    0.09924       -0.043908673   -10.465971      190.90436     -3.8912451     -5.9734576      112.21053     -8.5930955     -0.034180542    0.094619032   -0.04490184     62.42115       69.548025      52.080947      2              226097.33      1.2170144     -1276024.5      12832.813      8686.6622      890.61614          21924       36303       53175       13773 
   4964000  -1298820.7      17737.481      296.59359     -1281083.2     -630.86901      687.96643      858.1525       706.13592      499.61087      0.09465542    -0.033355119    0.09928       -0.044916471   -86.953736     -71.550682     -50.624502      18.333267      127.38855      9.3773197     -0.033924088    0.09465542    -0.045956477    62.43716       69.550556      52.026049      2              225925.16      1.2179418     -1275988.1      12710.505      8436.7706      907.69717          21924       36303       53175       13773 
   4966000  -1298768.2      17782.336      297.34363     -1280985.9     -648.68718     -802.12192      430.14611     -1884.2163     -952.29554      0.094691807   -0.033492729    0.09932       -0.044066548   -43.581423      190.92136      96.494484     -0.61461396     115.96385     -15.124718     -0.034066458    0.094691807   -0.045066979    62.428272      69.553087      52.072347      2              226102.24      1.2169879     -1276024.9      12681.274      8558.691       883.1199           21924       36303       53175       13773 
   4968000  -1298710.3      17866.548      298.75176     -1280843.8     -649.52168      221.96308      995.05233     -666.34888      337.18579      0.094728192   -0.034161823    0.09936       -0.043995766   -100.82474      67.516752     -34.166384      2.5486055      108.92933      10.353788     -0.034758978    0.094728192   -0.044992937    62.385054      69.555617      52.076203      2              225970.67      1.2176965     -1276057.3      12672.033      8673.1082      901.26929          21924       36303       53175       13773 
   4970000  -1298915.1      17830.739      298.15298     -1281084.3     -645.87242     -405.25026     -848.67253     -661.72659      294.64834      0.094764576   -0.033538361    0.0994        -0.043724418    85.990825      67.048518     -29.856159     -13.823577      115.67154      3.8391453     -0.034113671    0.094764576   -0.044709142    62.425324      69.558148      52.090984      2              226188.95      1.2165214     -1276250.2      12669.252      8630.423       895.67814          21924       36303       53175       13773 
   4972000  -1298546.9      17788.044      297.43907     -1280758.9     -563.89053     -222.08616      915.18222     -2082.2564      500.81569      0.094800959   -0.032671242    0.09944       -0.043085806   -92.729516      210.98594     -50.743824      6.1075057      104.47766     -18.037236     -0.033216865    0.094800959   -0.044041553    62.481333      69.560679      52.125771      2              226551.32      1.2145756     -1276018.8      12813.908      8566.5039      902.25707          21924       36303       53175       13773 
   4974000  -1298636        17734.815      296.54902     -1280901.2     -571.07809     -150.97707      1142.1776     -1240.0054     -355.10332      0.094837341   -0.032521549    0.09948       -0.04298618    -115.73311      125.64155      35.978834     -9.4269016      130.30926      18.566408     -0.033062128    0.094837341   -0.043937446    62.491002      69.56321       52.131198      2              226618.21      1.2142171     -1276109.7      12829.597      8523.4778      911.18522          21924       36303       53175       13773 
   4976000  -1298792.4      17872.65       298.8538      -1280919.7     -706.68812     -268.92529     -65.756066     -1285.4722      544.45237      0.094873721   -0.031534445    0.09952       -0.043123241    6.6640418      130.25176     -55.165356      8.6948612      125.11548      6.4247036     -0.032042362    0.094873721   -0.044080674    62.554761      69.56574       52.123732      2              226825.19      1.2131091     -1276104.7      12662.259      8659.1564      907.37844          21924       36303       53175       13773 
   4978000  -1298439        17976.386      300.58839     -1280462.6     -615.46956     -431.88098      535.17304     -1910.5023      79.686291      0.0949101     -0.031830691    0.09956       -0.0439518     -54.226581      193.58147     -8.074388       20.916686      108.79688     -2.3507283     -0.032348301    0.0949101     -0.044946949    62.535626      69.568271      52.078598      2              226567.7       1.2144878     -1275916.4      12816.414      8579.365       921.39454          21924       36303       53175       13773 
   4980000  -1298641.6      17825.174      298.05993     -1280816.5     -643.93377     -524.0665      -82.291303     -1268.4223     -221.48589      0.094946477   -0.033007013    0.0996        -0.045378056    8.3366358      128.52137      22.440535     -9.0227971      118.29125     -1.1030125     -0.033564036    0.094946477   -0.046439887    62.459645      69.570802      52.000906      2              225963.05      1.2177376     -1275968.1      12796.849      8529.5443      886.94671          21924       36303       53175       13773 
   4982000  -1298840.4      17818.179      297.94297     -1281022.2     -683.96595      230.75458      876.23271     -1051.8605      867.89156      0.094982854   -0.034392349    0.09964       -0.047109403   -88.784526      106.57952     -87.939359     -11.522221      114.57291     -0.091716662   -0.034997686    0.094982854   -0.04825518     62.370164      69.573333      51.906594      2              225238.29      1.221656      -1276049.2      12617.852      8607.3871      893.29465          21924       36303       53175       13773 
   4984000  -1298586.2      17814.618      297.88343     -1280771.6     -659.23788     -68.798961     -478.12676     -300.00719      571.73706      0.095019228   -0.034276359    0.09968       -0.047176879    48.448592      30.400619     -57.928894      0.37761784     114.91097     -17.227563     -0.034877571    0.095019228   -0.048325994    62.377656      69.575864      51.902919      2              225257.59      1.2215513     -1275894.2      12726.684      8578.0842      906.51981          21924       36303       53175       13773 
   4986000  -1298734.7      17865.496      298.73416     -1280869.2     -828.2796      -289.50168      161.09883     -1049.2979      19.694027      0.095055602   -0.034334562    0.09972       -0.045172669   -16.325992      106.31752     -1.9981086      6.849079       116.2005      -16.734161     -0.034937842    0.095055602   -0.04622476     62.373897      69.578394      52.012094      2              225726.01      1.2190164     -1276031.9      12845.919      8585.6593      884.84403          21924       36303       53175       13773 
   4988000  -1298814.7      17808.045      297.77352     -1281006.7     -802.7419      -674.96091      584.13593     -975.81259     -1633.2061      0.095091974   -0.035686661    0.09976       -0.044347007   -59.187461      98.874325      165.48472      7.1389939      132.48472      21.895863     -0.036338996    0.095091974   -0.045360409    62.286562      69.580925      52.05707       2              225613.08      1.2196265     -1275994.5      12759.509      8546.1043      894.60451          21924       36303       53175       13773 
   4990000  -1298648.4      17892.304      299.18244     -1280756.1     -675.50292     -56.732865     -14.006155     -935.24042      779.04798      0.095128345   -0.035760315    0.0998        -0.044275155    1.4214262      94.765484     -78.934776     -22.948994      117.85539      3.5308874     -0.03641538     0.095128345   -0.045285227    62.281805      69.583456      52.060984      2              225621.02      1.2195837     -1276109.8      12805.925      8618.7734      912.7837           21924       36303       53175       13773 
   4992000  -1298643        17888.649      299.12133     -1280754.3     -596.39131     -249.52232      27.621823     -1367.2424      591.05363      0.095164715   -0.034204264    0.09984       -0.043700686   -2.8028044      138.53184     -59.892545      1.4480468      129.78126     -6.3741416     -0.034802921    0.095164715   -0.044684325    62.382313      69.585987      52.092277      2              226129.17      1.216843      -1276001.5      12789.094      8513.5536      888.0568           21924       36303       53175       13773 
   4994000  -1298785.3      17807.583      297.76578     -1280977.7     -736.69368     -515.39708      442.15543     -1550.7784     -437.56826      0.095201083   -0.03317671     0.09988       -0.042915653   -44.800113      157.13393      44.337916      4.8318097      115.82436      17.804978     -0.03373954     0.095201083   -0.043863755    62.448684      69.588517      52.135039      2              226563.83      1.2145085     -1276128.9      12906.18       8522.1696      865.68773          21924       36303       53175       13773 
   4996000  -1298607.8      17831.015      298.15761     -1280776.8     -552.38127     -487.07         24.923266     -1541.4339      55.300648      0.09523745    -0.034279352    0.09992       -0.044321777   -2.525218       156.18592     -5.603207       16.901761      119.47222      9.2105834     -0.034880671    0.09523745    -0.045334009    62.377463      69.591048      52.058444      2              225981.18      1.2176399     -1276053        12762.767      8535.3991      906.60757          21924       36303       53175       13773 
   4998000  -1298979        17877.167      298.92932     -1281101.8     -603.82411     -657.92272      306.16642     -2239.6655     -40.269053      0.095273816   -0.034495514    0.09996       -0.046240351   -31.023195      226.9332       4.0793818     -26.766346      120.26739     -9.3825634     -0.03510453     0.095273816   -0.047343579    62.3635        69.593579      51.953934      2              225485.23      1.2203181     -1276266.9      12681.2        8560.6248      875.43573          21924       36303       53175       13773 
   5000000  -1298740        17772.635      297.18142     -1280967.4     -638.8377      -332.06023      106.77225     -760.16823     -342.78471      0.09531018    -0.031776534    0.1           -0.046807566   -10.816159      77.026582      34.735172     -17.931007      108.49814     -14.838814     -0.032292365    0.09531018    -0.047938471    62.539124      69.59611       51.923036      2              225993.96      1.217571      -1276085        12704.671      8623.4116      878.83927          21924       36303       53175       13773 
Loop time of 110220 on 16 procs for 5000000 steps with 20064 atoms

Performance: 0.392 ns/day, 61.233 hours/ns, 45.364 timesteps/s, 910.182 katom-step/s
98.9% CPU use with 16 MPI tasks x no OpenMP threads

MPI task timing breakdown:
Section |  min time  |  avg time  |  max time  |%varavg| %total
---------------------------------------------------------------
Pair    | 64237      | 71711      | 76661      | 890.1 | 65.06
Bond    | 22917      | 23855      | 25164      | 362.9 | 21.64
Kspace  | 5255.8     | 11000      | 19415      |2637.2 |  9.98
Neigh   | 414.59     | 414.77     | 414.98     |   0.6 |  0.38
Comm    | 1540.2     | 1558.8     | 1581.4     |  43.1 |  1.41
Output  | 3.0527     | 3.0723     | 3.3628     |   4.3 |  0.00
Modify  | 1372.3     | 1469.2     | 1512       | 131.9 |  1.33
Other   |            | 208.1      |            |       |  0.19

Nlocal:           1254 ave        1316 max        1214 min
Histogram: 3 3 1 3 1 1 1 1 1 1
Nghost:        11878.8 ave       12016 max       11706 min
Histogram: 1 0 1 5 0 2 1 1 3 2
Neighs:         639851 ave      676607 max      591728 min
Histogram: 1 0 1 4 0 2 2 2 3 1

Total # of neighbors = 10237610
Ave neighs/atom = 510.24771
Ave special neighs/atom = 5.8041268
Neighbor list builds = 18553
Dangerous builds = 0

#-------------------Wrap up-------------------
write_restart   ${myid}.restart
write_restart   tensile_L10_rep_1_2_full_xld_erate_2e8_IFF-RX0.restart
System init for write_restart ...
PPPM initialization ...
  using 12-bit tables for long-range coulomb (../kspace.cpp:342)
  G vector (1/distance) = 0.18337156
  grid = 16 18 15
  stencil order = 5
  estimated absolute RMS force accuracy = 0.025005244
  estimated relative force accuracy = 7.5302549e-05
  using double precision KISS FFT
  3d grid and FFT values/proc = 1638 320
Generated 45 of 45 mixed pair_coeff terms from sixthpower/sixthpower mixing rule
write_data      ${myid}.data
write_data      tensile_L10_rep_1_2_full_xld_erate_2e8_IFF-RX0.data
System init for write_data ...
PPPM initialization ...
  using 12-bit tables for long-range coulomb (../kspace.cpp:342)
  G vector (1/distance) = 0.18337156
  grid = 16 18 15
  stencil order = 5
  estimated absolute RMS force accuracy = 0.025005244
  estimated relative force accuracy = 7.5302549e-05
  using double precision KISS FFT
  3d grid and FFT values/proc = 1638 320
Generated 45 of 45 mixed pair_coeff terms from sixthpower/sixthpower mixing rule
Total wall time: 30:37:00
