thermo_style    custom step temp pe ke etotal press pxx pyy pzz v_etrue v_eengxy v_eengxz v_eengyz v_etruexy v_etruexz v_etrueyz                 f_sxx_ave f_syy_ave f_szz_ave f_sxy_ave f_sxz_ave f_syz_ave lx ly lz v_dir vol density ebond eangle edihed                 eimp evdwl ecoul elong epair v_Time

restart         ${nsteps} rst1.a.${myid} rst2.a.${myid}
restart         200 rst1.a.${myid} rst2.a.${myid}
restart         200 rst1.a.shear_3_AroCy_L10_pxld_97_replicate_1_FF_PCFF-class2xe rst2.a.${myid}
restart         200 rst1.a.shear_3_AroCy_L10_pxld_97_replicate_1_FF_PCFF-class2xe rst2.a.shear_3_AroCy_L10_pxld_97_replicate_1_FF_PCFF-class2xe
dump            6 all atom 10000 dump.${myid} #every picosecond
dump            6 all atom 10000 dump.shear_3_AroCy_L10_pxld_97_replicate_1_FF_PCFF-class2xe 
dump_modify     6 scale no sort id


#-------------------Run-------------------
run             ${steps}
run             750000

CITE-CITE-CITE-CITE-CITE-CITE-CITE-CITE-CITE-CITE-CITE-CITE-CITE

Your simulation uses code contributions which should be cited:

- Type Label Framework: https://doi.org/10.1021/acs.jpcb.3c08419

@Article{Gissinger24,
 author = {Jacob R. Gissinger, Ilia Nikiforov, Yaser Afshar, Brendon Waters, Moon-ki Choi, Daniel S. Karls, Alexander Stukowski, Wonpil Im, Hendrik Heinz, Axel Kohlmeyer, and Ellad B. Tadmor},
 title = {Type Label Framework for Bonded Force Fields in LAMMPS},
 journal = {J. Phys. Chem. B},
 year =    2024,
 volume =  128,
 number =  13,
 pages =   {3282–-3297}
}

CITE-CITE-CITE-CITE-CITE-CITE-CITE-CITE-CITE-CITE-CITE-CITE-CITE

PPPM initialization ...
  using 12-bit tables for long-range coulomb (../kspace.cpp:342)
  G vector (1/distance) = 0.184014
  grid = 18 16 15
  stencil order = 5
  estimated absolute RMS force accuracy = 0.024493172
  estimated relative force accuracy = 7.376046e-05
  using double precision KISS FFT
  3d grid and FFT values/proc = 1690 320
Generated 45 of 45 mixed pair_coeff terms from sixthpower/sixthpower mixing rule
Neighbor list info ...
  update: every = 1 steps, delay = 0 steps, check = yes
  max neighbors/atom: 5000, page size: 100000
  master list distance cutoff = 14
  ghost atom cutoff = 14
  binsize = 7, bins = 10 9 8
  1 neighbor lists, perpetual/occasional/extra = 1 0 0
  (1) pair lj/class2/coul/long, perpetual
      attributes: half, newton on
      pair build: half/bin/newton/tri
      stencil: half/bin/3d/tri
      bin: standard
WARNING: Inconsistent image flags (../domain.cpp:1051)
Per MPI rank memory allocation (min/avg/max) = 20.28 | 20.36 | 20.68 Mbytes
   Step          Temp          PotEng         KinEng         TotEng         Press           Pxx            Pyy            Pzz          v_etrue        v_eengxy       v_eengxz       v_eengyz      v_etruexy      v_etruexz      v_etrueyz      f_sxx_ave      f_syy_ave      f_szz_ave      f_sxy_ave      f_sxz_ave      f_syz_ave          Lx             Ly             Lz           v_dir          Volume        Density         E_bond        E_angle        E_dihed        E_impro         E_vdwl         E_coul         E_long         E_pair         v_Time    
         0   298           -26635.259      17821.59      -8813.6692      55.727419      360.9731      -398.2192       204.42835      0              0              0              0              0              0              0              0              0              0              0              0              0              64.809685      62.380525      54.432609      3              220063.54      1.250383       9228.7524      11916.385     -3294.5893      887.62155     -911.72018     -17367.967     -27093.741     -45373.428      0            
       200   298.14424     -26298.189      17830.216     -8467.9732     -393.98613     -1097.0487      404.59818     -489.50791      3.99992e-05   -0.00039695212  7.839846e-05   3.9938608e-05 -0.00039703093  7.8395387e-05  3.9937811e-05 -4.7407339     -4.251042      -10.982757      1.6802182      1.7188965     -6.5094398      64.833261      62.324151      54.473829      3              220111.2       1.2501122      9257.3165      12008.387     -3070.6762      869.79708     -932.04477     -17337.096     -27093.872     -45363.013      0.2          
       400   299.93245     -26254.118      17937.158     -8316.9601      120.57959     -514.40431      188.20118      687.94189      7.99968e-05   -0.00092813071  0.00014473384  7.9786214e-05 -0.00092856169  0.00014472336  7.9783032e-05  11.457064      13.2133        19.865974      3.4854821     -1.0117762     -4.8107387      64.868974      62.265834      54.4867        3              220078.36      1.2502988      9295.9651      11947.051     -3024.3285      887.47477     -905.91729     -17359.683     -27094.68      -45360.28       0.4          
       600   300.32524     -26545.181      17960.648     -8584.5329      357.50934     -57.868637      181.57265      948.82401      0.0001199928  -0.0023984358   4.3563128e-05  0.00011987235 -0.0024013167   4.3562179e-05  0.00011986517 -18.332931     -18.109896     -6.2748553      3.8379271      0.42550004    -1.1180905      64.846333      62.22611       54.442963      3              219684.71      1.2525392      9302.8592      11812.202     -3159.0783      851.3355      -889.69949     -17369.653     -27093.147     -45352.5        0.6          
       800   295.9541      -26437.189      17699.237     -8737.9517     -271.77757     -639.57427     -154.71354     -21.04491       0.0001599872  -0.0039656518  -0.00032075785  0.00016115311 -0.0039735358  -0.00032080931  0.00016114013 -9.8375955      3.3951825     -19.611941     -11.428437     -4.2485864     -14.123676      64.937849      62.238006      54.472658      3              220156.82      1.2498532      9292.2833      11980.582     -3295.5959      857.50747     -834.08821     -17344.093     -27093.785     -45271.965      0.8          
      1000   296.36399     -26725.68       17723.75      -9001.9303     -544.47194     -506.32316     -645.88299     -481.20968      0.00019998    -0.0055240849  -0.00065296811  0.00020300958 -0.005539399   -0.00065318139  0.00020298898  22.642597     -17.456817      9.7139797     -1.4407344      6.3625288      1.7137937      65.078383      62.297525      54.594854      3              221339.67      1.2431739      9240.791       11970.522     -3497.2732      836.6356      -867.46092     -17314.955     -27093.939     -45276.355      1            
      1200   300.16554     -26303.844      17951.097     -8352.7463     -303.53122     -390.28797      255.68625     -775.99195      0.0002399712  -0.0075036673  -0.0013717039   0.00024957545 -0.0075319615  -0.0013726456   0.00024954431  21.291872      10.515043      28.037065      11.840565      6.0150005      0.42626266     65.081006      62.345746      54.594183      3              221517.2       1.2421776      9168.6671      11944.113     -3098.3939      869.21018     -732.78786     -17359.84      -27094.811     -45187.44       1.2          
      1400   296.65557     -26392.081      17741.188     -8650.8936      175.15916     -21.67286       802.15026     -254.99993      0.00027996081 -0.0099749946  -0.0026856881   0.00030662708 -0.010025078   -0.002689301    0.00030658008  18.557478      9.5592682      11.978086     -7.9513421     -3.0956269      1.1166099      64.92754       62.363285      54.461246      3              220518.74      1.2478019      9339.2715      12059.971     -3332.8059      855.12944     -863.40772     -17357.52      -27092.72      -45313.648      1.4          
      1600   296.85445     -26601.843      17753.081     -8848.7621      1220.1618      1216.9734      1237.4201      1206.0918      0.00031994881 -0.011593019   -0.0031150533   0.00035666872 -0.011660742   -0.0031199152   0.00035660512 -10.32089      -4.2356522     -20.052188     -16.9376       -18.207418     -7.4396757      64.748531      62.369837      54.334159      3              219420.64      1.2540466      9338.7879      11919.772     -3486.2199      873.62841     -794.33852     -17359.693     -27093.78      -45247.812      1.6          
      1800   296.67402     -26458.684      17742.291     -8716.3932     -462.65003     -624.39754     -680.7914      -82.761131      0.00035993522 -0.011627583   -0.0028880142   0.00039406982 -0.011695712   -0.0028921926   0.0003939922  -20.885514     -15.610875     -13.425936     -14.818098      1.9111769     -6.404128       64.670822      62.483147      54.354717      3              219638.52      1.2528026      9239.1444      11763.62      -2951.3427      876.57052     -922.08181     -17371.331     -27093.263     -45386.676      1.8          
      2000   300.29711     -26370.847      17958.966     -8411.8806     -219.2422      -169.44306     -804.56016      316.27663      0.00039992002 -0.010619786   -0.0016010025   0.00041746361 -0.010676579   -0.0016022855   0.00041737649 -0.96990156     16.358574      13.73157       0.7115626     -17.444887     -6.0734293      64.680042      62.478217      54.366724      3              219701.03      1.2524461      9284.8474      11982.428     -3146.5969      882.88918     -947.35161     -17333.556     -27093.506     -45374.414      2            
      2200   296.79862     -26417.998      17749.742     -8668.2557     -34.787635      28.43746      -464.47363      331.67327      0.00043990323 -0.009626493    0.00079475113  0.0004330809  -0.0096731272   0.00079443548  0.00043298715  11.29605       13.250443     -9.4880708      2.8024236      5.4527994     -6.7749716      64.671826      62.437039      54.339733      3              219419.35      1.2540539      9181.322       11984.23      -3112.9305      878.84135     -916.99218     -17338.9       -27093.569     -45349.461      2.2          
      2400   296.54994     -26251.307      17734.87      -8516.4366     -692.88314     -68.027718     -1091.5722     -919.04952      0.00047988484 -0.0089373679   0.0020371647   0.00046259246 -0.0089775457   0.0020350924   0.0004624855  -4.2642485     -0.60019169    -13.364276      4.9918024      17.067317     -10.673134      64.61308       62.33016       54.339853      3              218845.26      1.2573437      9173.6247      11961.6       -2882.5243      890.86898     -947.90524     -17353.539     -27093.432     -45394.876      2.4          
      2600   299.80339     -26556.245      17929.439     -8626.8056     -8.1887274      248.9967      -298.63896      25.076079      0.00051986485 -0.0084771985   0.0019840475   0.00050286507 -0.0085133343   0.0019820819   0.00050273867 -22.347424     -10.206821     -9.840722      -6.4237921      6.2967751     -15.351415      64.665256      62.269034      54.463636      3              219305.62      1.2547043      9308.6194      11955.045     -3261.7269      863.03375     -986.53222     -17340.928     -27093.755     -45421.216      2.6          
      2800   295.0242      -26349.061      17643.625     -8705.4357     -183.85227     -227.54948     -368.37168      44.364355      0.00055984326 -0.0073900037   0.00077635851  0.00055260056 -0.007417445    0.0007760573   0.00055244794  6.8668534      0.21968153     15.499156     -5.826536       12.142448     -1.8650383      64.735838      62.244125      54.593144      3              219979.01      1.2508634      9337.3952      12011.343     -3202.6641      883.00756     -959.95744     -17325.066     -27093.119     -45378.143      2.8          
      3000   298.01022     -26469.893      17822.201     -8647.6922     -636.15118     -534.95332     -854.15238     -519.34785      0.00059982007 -0.0055383062  -0.0010999238   0.00060422804 -0.0055536995  -0.0011005292   0.00060404557  6.9806021      19.036853      13.565863      2.1561272     -0.10510786    -8.0795258      64.707983      62.116784      54.60133       3              219467.42      1.2537793      9078.1869      11961.062     -3000.0842      869.84812     -957.079       -17327.335     -27094.492     -45378.906      3            
      3200   299.51389     -26234.061      17912.126     -8321.9348      60.557421     -373.49899     -90.464187      645.63544      0.00063979529 -0.0047813948  -0.0028159082   0.00065152245 -0.0047928622  -0.0028198803   0.0006513103  -0.72560721    -18.117856     -6.9584598      17.236033      0.85196878     12.188412      64.720975      61.967188      54.597386      3              218967.01      1.2566446      9282.1088      11993.117     -3088.3436      893.58215     -897.98375     -17322.356     -27094.186     -45314.525      3.2          
      3400   298.98895     -26532.236      17880.733     -8651.5028      538.82194      1069.8727      1175.385      -628.79192      0.0006797689  -0.0053755652  -0.0044184936   0.00070031848 -0.0053900656  -0.004428284    0.00070007337 -18.311184     -15.860897     -13.249433      6.2010585     -0.7684802     -6.3385373      64.869189      61.979852      54.707494      3              219956.01      1.2509943      9255.0257      12053.09      -3368.6537      875.34947     -937.70372     -17315.464     -27093.879     -45347.047      3.4          
      3600   297.78173     -26437.365      17808.536     -8628.8291     -426.55561      78.497014      5.2762284     -1363.4401      0.00071974092 -0.005925958   -0.0056360646   0.00074920667 -0.0059435862  -0.0056520071   0.00074892616  18.049339     -10.195996      28.227108     -4.5518093     -5.9001622      1.3128448      65.015191      62.067003      54.749547      3              220930.74      1.245475       9193.17        11979.819     -3159.5648      887.60211     -941.45611     -17302.883     -27094.051     -45338.391      3.6          
      3800   296.5401      -26548.633      17734.282     -8814.3516     -287.91096      511.76388     -340.8934      -1034.6034      0.00075971135 -0.0059371991  -0.0054958553   0.00078990352 -0.0059548943  -0.0055110131   0.00078959171  27.680731      11.477989      25.012136     -8.9687577     -24.610036     -2.3852579      64.957257      62.124154      54.626764      3              220441.64      1.2482383      9244.5293      11894.454     -3235.2569      870.15352     -899.9025      -17329.79      -27092.821     -45322.513      3.8          
      4000   299.79136     -26446.336      17928.72      -8517.6153      981.45114      1839.3635      332.08876      772.90115      0.00079968017 -0.0056568592  -0.004099877    0.00082341485 -0.0056729199  -0.0041083045   0.00082307603  0.76652626     3.8586047      15.035866      5.3566627      1.1751893     -4.8165293      64.843211      62.163627      54.416128      3              219345.38      1.2544769      9376.7264      12042.224     -3401.9606      865.12616     -884.02498     -17350.859     -27093.567     -45328.451      4            
      4200   298.0858      -26360.049      17826.721     -8533.3289     -187.21544     -528.93471     -581.13113      548.4195       0.0008396474  -0.0056151699  -0.0032245494   0.00085996933 -0.0056309942  -0.0032297594   0.00085959977 -26.528126     -14.375855     -34.032871     -7.1785805     -5.0356794     -6.4755917      64.820222      62.250518      54.310997      3              219149.89      1.2555959      9334.3311      11984.367     -3144.0288      896.42917     -982.28274     -17354.844     -27094.021     -45431.148      4.2          
      4400   297.62989     -26348.493      17799.456     -8549.0374     -522.37926     -805.87878     -254.19897     -507.06004      0.00087961303 -0.0051499855  -0.0020932188   0.00089233801 -0.0051632924  -0.0020954126   0.00089194012  12.428479     -13.040802      1.7739664      1.9329892     -11.933324     -7.0039989      64.831968      62.365683      54.335554      3              219694.4       1.2524839      9146.1698      11898.102     -2854.3169      881.2249      -944.02784     -17381.499     -27094.146     -45419.673      4.4          
      4600   297.15377     -26634.989      17770.981     -8864.0071      1000.4438      1284.5074      978.80744      738.01653      0.00091957706 -0.0052385083  -0.00095933216  0.00092716236 -0.0052522774  -0.00095979261  0.00092673281  10.203029      16.236183      6.2426811      3.6614494      5.6809838      0.74765559     64.803751      62.418762      54.305684      3              219664.86      1.2526523      9239.5375      12026.821     -3414.5285      889.62427     -926.74238     -17356.173     -27093.528     -45376.443      4.6          
      4800   293.68636     -26344.664      17563.617     -8781.047      -302.66585     -545.03281     -262.71747     -100.24728      0.00095953949 -0.0055552312  -0.00044242295  0.00096500091 -0.0055707189  -0.00044252084  0.0009645356   11.908664      10.174613      2.6213117      3.5159074      6.534692      -2.1958864      64.747274      62.340559      54.287931      3              219126.79      1.2557283      9298.2471      11916.296     -3019.3496      893.3748      -967.7778      -17371.605     -27093.849     -45433.232      4.8          
      5000   300.52838     -26290.216      17972.797     -8317.4195      289.44474      205.57069     -394.26782      1057.0314      0.00099950033 -0.0053807998   0.00060738799  0.00099909936 -0.0053953284   0.00060720361  0.0009986006  -7.6834031     -9.6448588     -13.645609     -10.823765     -8.4995824     -12.076977      64.604613      62.243526      54.303225      3              218365.16      1.2601081      9264.1648      11972.249     -2962.7135      885.95461     -977.59307     -17378.295     -27093.983     -45449.872      5            
      5200   297.75507     -26471.318      17806.942     -8664.3762     -119.02261     -864.55326      294.30903      213.17639      0.0010394596  -0.0047295256   0.00099085992  0.0010362763  -0.0047407451   0.00099036934  0.0010357398  -20.480947     -19.488472     -12.398741      0.39323218     10.611088      9.5826163      64.641861      62.279712      54.381618      3              218933.67      1.2568359      9268.0457      12045.122     -3231.6756      901.04592     -1023.5364     -17336.633     -27093.686     -45453.856      5.2          
      5400   297.07488     -26318.379      17766.264     -8552.1148     -1523.7767     -1966.5034     -1510.0343     -1094.7925      0.0010794172  -0.0048786123   0.00025816723  0.0010788569  -0.0048905516   0.00025813391  0.0010782754   5.1126466      2.5620189      33.863676      9.865953       1.1329336     -3.4001611      64.688886      62.364729      54.426071      3              219571.37      1.2531857      9173.0425      11999.81      -2920.7176      893.14807     -1008.4692     -17360.567     -27094.626     -45463.662      5.4          
      5600   295.36654     -26598.72       17664.098     -8934.6219      48.303851     -333.2369       361.03768      117.11077      0.0011193733  -0.0062661604  -0.0014795943   0.0011318252  -0.0062858751  -0.0014806899   0.0011311851   7.4856404      2.4163033     -3.1508683      9.0772304      17.393328      5.430832       64.671463      62.460916      54.307624      3              219372.32      1.2543228      9394.4134      11927.233     -3411.9253      871.33122     -958.18527     -17328.893     -27092.694     -45379.773      5.6          
      5800   299.16744     -26719.198      17891.407     -8827.791       337.78632      19.034189      42.998741      951.32601      0.0011593277  -0.0078782616  -0.0040704222   0.0011953319  -0.0079094591  -0.0040787289   0.0011946181  -2.5026331      1.7283222     -10.833054     -2.4326275     -9.5378468     -0.27637744     64.653444      62.514066      54.277696      3              219376.86      1.2542969      9212.7107      11840.653     -3299.6991      866.85076     -879.83734     -17366.218     -27093.659     -45339.714      5.8          
      6000   300.90996     -26393.977      17995.617     -8398.3595      406.53736      601.28312      87.786937      530.54202      0.0011992806  -0.009607081   -0.0061907179   0.0012624399  -0.0096535267  -0.0062099598   0.0012616437   0.017561661    1.8012671      5.5245957     -1.1734682     -3.187295      -6.3510347      64.638336      62.558274      54.294811      3              219549.9       1.2533082      9210.2719      11946.498     -3076.5095      892.06653     -896.40592     -17374.693     -27095.204     -45366.303      6            
      6200   299.3089      -26663.1        17899.867     -8763.2333     -679.35168     -409.8411      -1054.5436     -573.6703       0.0012392318  -0.010159661   -0.0079581736   0.0013219508  -0.010211622   -0.0079900088   0.0013210778  -4.5386201      10.790801     -18.7535       -11.607776      2.3737568     -7.0368375      64.6695        62.605347      54.379782      3              220165.06      1.2498064      9159.7642      12012.082     -3282.5027      860.95611     -1026.6842     -17293.05      -27093.666     -45413.4        6.2          
      6400   298.65703     -26376.496      17860.882     -8515.614      -737.34385     -696.68222     -966.44546     -548.90386      0.0012791815  -0.01029296    -0.0091247164   0.0013733015  -0.010346299   -0.0091666016   0.0013723594   19.03503       19.899374      2.7330378      6.3271595     -3.0310948      4.9876595      64.595926      62.535748      54.453632      3              219968.42      1.2509237      9230.2508      11962.104     -3069.9994      859.15388     -926.19948     -17338.06      -27093.747     -45358.006      6.4          
      6600   299.24598     -26804.393      17896.104     -8908.2893      719.2721       559.98842      573.38273      1024.4452      0.0013191296  -0.010478767   -0.0098457253   0.0014211484  -0.010534056   -0.009894515    0.0014201395   3.5238092      13.307544      5.7999622     -10.754198     -16.43809      -12.260127      64.457606      62.322143      54.510334      3              218975.44      1.2565962      9363.7419      11767.757     -3408.2428      861.24637     -930.10741     -17366.027     -27092.761     -45388.896      6.6          
      6800   297.1927      -26512.625      17773.31      -8739.3154      92.484823      477.93014      8.5727398     -209.04841      0.001359076   -0.0099008042  -0.0084848886   0.0014388933  -0.0099501431  -0.0085210902   0.0014378591  -15.08445      -32.48288      -9.8413996     -7.8619868     -21.319751     -3.0702781      64.397368      62.256018      54.633289      3              219031.61      1.2562739      9247.5483      11893.591     -3198.5944      885.01623     -908.26561     -17338.112     -27093.809     -45340.187      6.8          
      7000   296.95184     -26208.257      17758.906     -8449.351      -601.54456     -1406.0895     -14.491335     -384.05289      0.0013990209  -0.0096057378  -0.0064673869   0.0014555311  -0.0096521705  -0.0064883911   0.0014544729  -15.652753     -17.683655     -0.3783895      8.473631       1.0716114     -10.696406      64.437396      62.30333       54.686402      3              219547.55      1.2533217      9285.7445      11852.616     -2897.4988      893.15228     -899.9144      -17349.795     -27092.56      -45342.27       7            
      7200   295.9674      -26618.987      17700.032     -8918.9549     -32.972401     -312.09623      583.80184     -370.62281      0.0014389642  -0.0092880973  -0.0041362319   0.0014720631  -0.0093315007  -0.0041448098   0.0014709807  -6.4805474      9.6553404      27.898117     -0.11981957    -10.64384       1.1448064      64.538035      62.387883      54.670993      3              220126.81      1.2500236      9285.1261      11986.051     -3350.069       886.12366     -987.56262     -17346.254     -27092.402     -45426.219      7.2          
      7400   300.9602      -26535.512      17998.621     -8536.8903      1051.2312      2217.817       530.09829      405.77849      0.0014789059  -0.0088006852  -0.001228779    0.0014872953  -0.00883964    -0.0012295346   0.0014861904  -2.8953965      13.663156     -7.5274394     -3.2678686     -3.7252158     -11.412826      64.594479      62.356861      54.560136      3              219763.26      1.2520915      9313.575       12042.219     -3439.6256      886.69689     -877.76054     -17366.529     -27094.087     -45338.377      7.4          
      7600   297.26912     -26204.012      17777.88      -8426.1317     -1259.7385     -1895.4826     -1302.7961     -580.93661      0.001518846   -0.0086374948   0.0011736664   0.001507711   -0.0086750142   0.0011729782   0.0015065756   14.850825      10.279201     -2.1809411      1.3623383      6.143141       1.4845036      64.626486      62.250312      54.507654      3              219285.32      1.2548204      9197.8413      11992.703     -2847.6233      904.40855     -987.66527     -17370.144     -27093.532     -45451.341      7.6          
      7800   298.66679     -26565.175      17861.466     -8703.7087      309.12455      1270.1571      374.3951      -717.1786       0.0015587845  -0.0082587019   0.002522522    0.0015372434  -0.0082929939   0.0025193458   0.001536063   -2.7470555     -10.082133      12.32973      -11.833232      4.2566425     -6.0862147      64.626934      62.210599      54.497752      3              219107.14      1.2558409      9240.6551      12011.78      -3295.5422      878.08752     -954.4525      -17352.656     -27093.047     -45400.155      7.8          
      8000   297.27792     -26523.638      17778.407     -8745.2317      70.183635      601.98149     -587.32796      195.89738      0.0015987214  -0.0084561303   0.002915416    0.0015736307  -0.0084920862   0.0029111744   0.0015723938  -1.7239528     -9.4900132     -3.6390445      13.551333      4.3842867     -0.71491134     64.673689      62.240416      54.48884       3              219334.87      1.254537       9147.1928      12084.897     -3258.8517      911.20037     -983.39922     -17330.805     -27093.872     -45408.077      8            
      8200   295.1497      -26401.496      17651.13      -8750.3655     -609.49446     -842.80421     -876.24298     -109.43619      0.0016386567  -0.0094247597   0.0026609645   0.0016145704  -0.0094694538   0.0026574304   0.0016132684  -3.617473      -0.54919924     1.4743154      13.910479      3.0193923     -11.938221      64.68898       62.236137      54.441603      3              219181.47      1.255415       9095.7078      11988.182     -3016.591       897.55903     -930.65892     -17342.359     -27093.335     -45366.353      8.2          
      8400   299.65416     -26378.6        17920.515     -8458.0846      283.86437     -114.7866       400.11042      566.2693       0.0016785904  -0.011308457    0.0020905782   0.0016573475  -0.011372884    0.0020883959   0.0016559756   3.4761745     -9.2852672      3.4485212      2.4905768      4.7535567      5.0715479      64.694156      62.286518      54.396961      3              219196.56      1.2553286      9283.7507      11962.355     -3144.3725      926.68912     -937.45843     -17376.703     -27092.86      -45407.022      8.4          
      8600   299.68316     -26610.521      17922.249     -8688.272       584.95659      75.130238      1159.8155      519.92406      0.0017185225  -0.012406519    0.001534397    0.0017037325  -0.012484122    0.001533221    0.0017022828   5.9569215      15.061125     -5.436372      -18.530405     -7.4425934     -12.543854      64.699497      62.434817      54.340833      3              219509.86      1.2535369      9343.291       11790.168     -3241.4412      897.71434     -947.30218     -17359.61      -27093.342     -45400.254      8.6          
      8800   296.47314     -26347.955      17730.277     -8617.6779     -118.47992      451.46182     -191.67029     -615.23128      0.001758453   -0.012572134    0.00094647204  0.0017518741  -0.012651832    0.00094602442  0.0017503413   5.4820731      9.5108214     -9.2511984     -5.1506258     -2.7483431      9.0254511      64.614817      62.441546      54.311798      3              219129.04      1.2557154      9209.1931      12048.209     -3112.3005      908.86925     -966.70589     -17341.126     -27094.094     -45401.926      8.8          
      9000   298.45445     -26423.29       17848.768     -8574.5228     -1224.0426     -2256.7546     -748.43067     -666.9425       0.0017983819  -0.012162634    0.0012889531   0.0017878033  -0.012237204    0.0012881231   0.0017862071  -19.534015      12.048397     -7.4856294     -7.7568483     -6.9329471     -12.362871      64.571741      62.340389      54.323454      3              218675.12      1.258322       9054.6729      11922.369     -2854.7226      903.9451      -1018.3046     -17338.008     -27093.241     -45449.554      9            
      9200   296.42195     -26588.818      17727.216     -8861.6019     -45.845573      149.39732      702.37196     -989.30601      0.0018383093  -0.011020131    0.0021247315   0.0018151365  -0.011081302    0.0021224774   0.0018134911  -12.302642     -37.665838     -16.155917      5.7007152      7.7082102     -8.7888891      64.630848      62.218876      54.472021      3              219046.09      1.2561909      9205.8558      11936.541     -3137.8938      891.05475     -1056.1061     -17335.204     -27093.065     -45484.376      9.2          
      9400   297.96538     -26238.206      17819.519     -8418.6871     -324.87535     -140.35531      58.623132     -892.89386      0.001878235   -0.0096743138   0.0029003244   0.0018448999  -0.009721414    0.0028961265   0.0018432001   26.735434      2.8193024      32.872956      2.2163795      4.9534497     -5.2171838      64.717595      62.164621      54.634414      3              219802.15      1.2518699      9242.7819      11972.397     -3033.0637      926.60535     -938.6776      -17315.182     -27093.067     -45346.927      9.4          
      9600   297.02621     -26312.085      17763.353     -8548.732      -121.76098     -804.03925      60.695358      378.06096      0.0019181592  -0.0083972666   0.0026714117   0.0018890951  -0.0084327222   0.0026678498   0.001887313    3.6096865     -3.8615867      8.3608006      3.9421713      6.547991      -16.284178      64.687846      62.13524       54.671686      3              219747.09      1.2521836      9320.1052      11973.764     -3181.8147      902.35011     -923.7422      -17310.113     -27092.634     -45326.489      9.6          
      9800   298.73358     -26577.903      17865.46      -8712.4426      616.26564      755.25246      912.60053      180.94392      0.0019580817  -0.0068717262   0.0012110486   0.0019432461  -0.0068954452   0.0012103159   0.0019413604   1.4378799     -12.535198      19.073338     -1.3273954      7.1423455     -10.004917      64.585746      62.140385      54.666391      3              219397.17      1.2541807      9201.8785      12005.3       -3366.6058      889.44077     -876.90366     -17337.433     -27093.579     -45307.916      9.8          
     10000   296.91087     -26534.034      17756.455     -8777.5788      59.771596     -97.824671      335.62126     -58.4818        0.0019980027  -0.0050592854  -0.00118414     0.0019999457  -0.0050721269  -0.0011848416   0.0019979484  -16.695765     -0.063105442    9.6499744      4.712057       5.4624262      0.96958525     64.589462      62.239871      54.596827      3              219481.42      1.2536993      9260.7733      11908.507     -3168.0135      904.11624     -988.25426     -17358.728     -27092.435     -45439.417      10           
     10200   297.9499      -26438.17       17818.593     -8619.5766      197.16709      682.995       -81.037037     -10.456696      0.002037922   -0.0042414698  -0.0037143435   0.0020519958  -0.0042504904  -0.0037212588   0.0020498933   3.3099872      1.6148457     -10.275695      6.87747        1.4564753     -1.4388759      64.615825      62.313564      54.532137      3              219570.51      1.2531906      9222.3754      11826.398     -2899.695       922.70979     -1057.7142     -17359.368     -27092.876     -45509.958      10.2         
     10400   299.05802     -26348.865      17884.864     -8464.0009      316.18408      1155.9358     -197.61001     -9.7736102      0.0020778398  -0.0042303071  -0.006264249    0.0021023154  -0.0042392802  -0.0062839518   0.0021001086  -3.4539792      0.62973829    -39.086676      13.53517      -1.4969584     -8.6735318      64.591227      62.323731      54.540689      3              219557.16      1.2532668      9189.9354      12012.555     -3070.3507      908.79985     -955.94355     -17339.756     -27094.104     -45389.804      10.4         
     10600   294.90766     -26400.621      17636.655     -8763.9658      50.905052      1378.5264     -172.62872     -1053.1826      0.002117756   -0.0047123139  -0.0090905907   0.0021550876  -0.0047234519  -0.0091321623   0.0021527687   6.5374376      14.450254      15.365306      2.6567159     -6.3336475     -12.609655      64.565252      62.305187      54.629368      3              219760.3       1.2521084      9320.5971      11884.928     -3093.6117      908.8646      -965.87855     -17360.758     -27094.763     -45421.399      10.6         
     10800   297.50543     -26314.152      17792.012     -8522.1401     -718.53954     -149.95351     -937.50773     -1068.1574      0.0021576706  -0.0055726615  -0.010500561    0.0022083585  -0.0055882467  -0.010556081    0.0022059237   4.8365918     -1.9688864      9.1900395      5.6870213     -7.7212223      3.2468595      64.528337      62.331104      54.685811      3              219953.03      1.2510112      9295.6926      12000.077     -3071.1146      906.57389     -989.25646     -17363.73      -27092.395     -45445.381      10.8         
     11000   298.53932     -26434.485      17853.843     -8580.6419      34.653382      346.65109      325.34768     -568.03862      0.0021975835  -0.0064950264  -0.010602986    0.0022579158  -0.0065162108  -0.010659598    0.0022553705  -2.496854      -15.111978      2.0611374     -10.916599     -2.5323117      0.93843966     64.506357      62.340666      54.700556      3              219971.14      1.2509082      9248.7536      11947.435     -3117.4836      901.61806     -965.03627     -17357.45      -27092.321     -45414.808      11           
     11200   297.26529     -26420.998      17777.651     -8643.3467     -1438.6882     -1489.2628     -749.8551      -2076.9466      0.0022374949  -0.0080924796  -0.010120395    0.002312939   -0.0081254015  -0.010171955    0.0023102683   5.3205081     -3.8197416      18.376149      11.796225     -16.15295       18.424075      64.458744      62.445835      54.646485      3              219961.94      1.2509605      9007.7762      11934.192     -2887.9994      902.11351     -955.00295     -17328.27      -27093.808     -45377.08       11.2         
     11400   301.59235     -26473.64       18036.427     -8437.2135      637.49765      501.06115      490.01089      921.42091      0.0022774047  -0.01039907    -0.0080309782   0.002359181   -0.010453518   -0.0080634002   0.0023564025  -10.52684       21.606574     -2.3142472      2.4977727     -9.7319462     -11.972145      64.4845        62.537631      54.531415      3              219909.27      1.2512602      9390.1117      11945.77      -3390.7647      886.91352     -884.1397      -17327.058     -27094.473     -45305.671      11.4         
     11600   299.26801     -26452.872      17897.421     -8555.4506      470.12464      870.50371      622.53142     -82.661212      0.002317313   -0.012639395   -0.005717148    0.0023912575  -0.012719952   -0.0057335534   0.002388403    10.074973     -6.0469888     -20.328049     -11.066076      11.457581     -12.470015      64.466041      62.582892      54.450784      3              219680.12      1.2525653      9352.5532      12035.459     -3249.4752      895.68411     -1064.483      -17329.208     -27093.402     -45487.093      11.6         
     11800   297.61011     -26249.141      17798.273     -8450.8685     -115.22517     -466.39467     -209.84172      330.56089      0.0023572196  -0.013724314   -0.0043687157   0.0024187761  -0.013819363   -0.0043782864   0.0024158555   1.9221804      13.610374      0.63258504    -6.1453531     -8.599407      -14.817437      64.362737      62.530397      54.454081      3              219157.39      1.2555529      9095.0696      12011.05      -2756.4399      893.50195     -1022.9317     -17376.346     -27093.045     -45492.323      11.8         
     12000   298.4453      -26477.29       17848.221     -8629.069      -529.58511      364.26581     -1563.061      -389.96012      0.0023971246  -0.01440322    -0.0028182624   0.0024374016  -0.014507953   -0.0028222412   0.002434436   -15.391601      5.6003424     -4.7304905     -5.5956942      7.0709194     -9.0695107      64.323674      62.441948      54.49906       3              218895.23      1.2570567      9165.1089      11907.619     -2955.6527      883.49061     -1012.7829     -17370.267     -27094.806     -45477.856      12           
     12200   299.0226      -26426.697      17882.745     -8543.9516      261.94093      94.3203        554.53571      136.96678      0.002437028   -0.01428721    -0.0013838349   0.0024551678  -0.014390255   -0.0013847933   0.0024521588  -13.37598       3.6604184      8.1004713     -11.181817     -2.5796034     -7.638156       64.435362      62.334664      54.529756      3              219021.85      1.2563299      9264.2875      12074.176     -3222.9962      892.08656     -1018.1609     -17322.26      -27093.83      -45434.251      12.2         
     12400   300.68721     -26632.742      17982.296     -8650.4459      483.03279      1052.1903      95.304569      301.60354      0.0024769299  -0.012897565   -0.00050501342  0.0024833182  -0.012981461   -0.00050514098  0.0024802399   4.7625831     -9.8815573      4.9157475      1.6842328      13.354797     -14.549574      64.508737      62.200281      54.498175      3              218671.83      1.2583409      9239.5779      11853.746     -3228.6562      900.59853     -951.20969     -17352.814     -27093.984     -45398.008      12.4         
     12600   298.07517     -26515.721      17826.085     -8689.6358      143.68282      525.36614      352.04548     -446.36316      0.0025168301  -0.011089677    0.00042787639  0.002512672   -0.011151626    0.00042778488  0.0025095206  -17.106451     -14.9443       -16.0366       -11.267245     -9.2839913     -3.7649994      64.670402      62.157747      54.48499       3              219016.93      1.2563581      9232.9836      11823.713     -3002.0705      903.57085     -1008.0831     -17371.822     -27094.013     -45473.918      12.6         
     12800   299.47389     -26481.931      17909.734     -8572.1968      703.23836      20.834883      1904.759       184.12118      0.0025567288  -0.0088423795   0.0015928551   0.0025423329  -0.0088817053   0.0015915878   0.0025391066   18.931601      4.8859216      4.3270725     -2.4296679     -0.62286105    -18.089836      64.823734      62.195126      54.506573      3              219755.26      1.2521371      9276.6759      12035.445     -3269.8622      876.4532      -956.12756     -17350.81      -27093.705     -45400.643      12.8         
     13000   297.2141      -26251.218      17774.59      -8476.6283     -194.37792     -335.77211     -421.16275      173.8011       0.0025966258  -0.0065041604   0.0019428419   0.0025848487  -0.0065254047   0.001940957    0.0025815138   21.03371      -7.4563008      16.063626     -2.96104        13.171889      2.2227599      64.794162      62.203517      54.48393       3              219593.38      1.2530601      9346.1684      11935.71      -3099.5         937.25521     -939.05929     -17338.217     -27093.576     -45370.852      13           
     13200   295.98788     -26349.505      17701.257     -8648.2482     -824.78257     -680.69581     -673.35768     -1120.2942      0.0026365213  -0.0044421644   0.0018338693   0.0026314673  -0.0044520601   0.0018321898   0.0026280111   4.8196636      0.40300753    -9.1745795      9.89125        0.2502339      5.4521201      64.71346       62.241528      54.439821      3              219276.23      1.2548725      9203.3032      11925.414     -2918.3958      898.3321      -1023.6508     -17339.557     -27094.952     -45458.159      13.2         
     13400   300.92994     -26525.353      17996.811     -8528.5416     -848.09833     -588.92935     -1284.4321     -670.93352      0.0026764152  -0.0034133933   0.00027259707  0.002679045   -0.0034192322   0.00027255993  0.0026754628  -4.2301714     -6.6887298      10.491043      4.4729423      22.684897      8.8266979      64.625997      62.342371      54.432658      3              219305.8       1.2547033      9113.9505      11944.973     -3086.5918      885.74303     -955.99446     -17334.127     -27093.306     -45383.427      13.4         
     13600   297.97947     -26707.182      17820.362     -8886.8209      713.1273       572.28664      945.62554      621.46971      0.0027163075  -0.0030001775  -0.0024935828   0.0027299778  -0.003004687   -0.0024966969   0.0027262581  -8.1208978      2.9688937     -20.899698      6.7292704      0.75281387    -18.395474      64.575318      62.423303      54.382145      3              219214.68      1.2552248      9284.8147      11919.272     -3407.8692      882.49866     -931.31258     -17360.603     -27093.983     -45385.898      13.6         
     13800   299.52058     -26478.28       17912.526     -8565.7533     -296.9639      -696.181        202.9749      -397.6856       0.0027561982  -0.003155852   -0.0051852426   0.0027764305  -0.0031608422  -0.0051987326   0.0027725833   4.1110018     -0.94588141    -7.6008437     -1.8853229     -2.5636694      2.6350509      64.560556      62.492853      54.430153      3              219602.44      1.2530084      9386.3318      12014.435     -3306.169       891.21798     -1020.5272     -17348.574     -27094.994     -45464.096      13.8         
     14000   297.97665     -26502.799      17820.193     -8682.6054     -546.22658      144.71401     -1633.9698     -149.42395      0.0027960873  -0.0026479819  -0.0080250078   0.002817751   -0.002651494   -0.0080573815   0.0028137886  -3.0962456      14.398738     -0.43520484     1.6833174      1.8444322      2.6593953      64.493365      62.482482      54.498625      3              219613.41      1.2529458      8998.9078      11868.913     -2876.3475      912.12277     -958.7899      -17353.656     -27093.948     -45406.394      14           
     14200   297.46211     -26340.533      17789.422     -8551.1112     -422.45405     -1492.5388      624.94169     -399.76501      0.0028359748  -0.0027648804  -0.010288117    0.0028632615  -0.0027687098  -0.010341406    0.0028591701   2.2530074      5.5234188      2.5443884      2.1223095     -4.2185341     -11.42263       64.47284       62.464097      54.5289        3              219600.84      1.2530175      9174.265       11956.493     -2987.9829      935.95075     -958.75141     -17367.077     -27093.43      -45419.259      14.2         
     14400   301.03411     -26432.3        18003.041     -8429.259      -255.29233     -829.31461     -754.63141      818.06903      0.0028758607  -0.0030823903  -0.010822525    0.0029068305  -0.0030871507  -0.010881514    0.0029026138   14.530232     -5.2540479      1.6583217      4.8236371     -13.556558      4.5002456      64.388568      62.378169      54.552669      3              219107.58      1.2558384      9152.0094      11942.207     -3025.6875      899.85737     -982.42916     -17324.352     -27093.906     -45400.686      14.4         
     14600   294.54882     -26353.936      17615.195     -8738.7403      629.13372      483.14165      118.05901      1286.2005      0.0029157451  -0.0043195411  -0.010699377    0.0029574665  -0.0043288973  -0.010757027    0.0029531018  -22.989824      4.6657503     -11.9467        2.6122383     -3.7421472     -6.335148       64.348499      62.299163      54.592404      3              218853.17      1.2572982      9295.4723      11916.037     -3078.864       898.53911     -948.22847     -17343.486     -27093.406     -45385.12       14.6         
     14800   298.36489     -26405.749      17843.412     -8562.3376     -682.13377     -323.85918     -1096.1106     -626.43147      0.0029556278  -0.0050696167  -0.0094681963   0.0029952678  -0.0050825108  -0.0095133047   0.0029907909  -20.809553     -26.116732      8.7810972     -6.5454185     -12.547432     -1.5941935      64.445991      62.361021      54.664436      3              219691.88      1.2524983      9172.3956      12091.587     -3233.3644      893.56699     -920.60253     -17315.857     -27093.476     -45329.935      14.8         
     15000   298.81155     -26257.988      17870.124     -8387.8642     -321.00579     -752.97754     -874.32705      664.28721      0.002995509   -0.005303847   -0.0074996616   0.0030258154  -0.0053179624  -0.0075279255   0.0030212468   22.895903      8.8661732      10.47087      -4.0803498     -1.3795363     -2.6989292      64.527605      62.400527      54.684641      3              220190.8       1.2496603      9114.1786      12059.03      -2988.3219      894.14062     -913.63007     -17328.694     -27094.691     -45337.015      15           
     15200   299.28457     -26635.658      17898.412     -8737.2466      495.23881      451.09242      896.87067      137.75335      0.0030353885  -0.0052632145  -0.0050274527   0.003057343   -0.0052771141  -0.0050401328   0.0030526789   12.464475      20.760546      39.748322      6.7192971      1.8839474      1.9276354      64.455385      62.36477       54.594738      3              219456.94      1.2538391      9180.3158      11953.094     -3319.0113      901.04876     -897.31244     -17359.249     -27094.544     -45351.105      15.2         
     15400   297.02463     -26598.63       17763.259     -8835.3714      665.86578      328.83355      1002.2631      666.50074      0.0030752665  -0.0056018623  -0.0026992187   0.0030933681  -0.0056176116  -0.0027028682   0.0030885935  -13.296938     -4.5135162     -20.757626     -6.8340892     -0.40975652    -3.4004492      64.430038      62.294546      54.462374      3              218592.36      1.2587984      9244.1559      11895.732     -3213.5839      901.91249     -937.48259     -17394.878     -27094.486     -45426.846      15.4         
     15600   297.7414      -26404.521      17806.125     -8598.3963      663.70486      1040.6844     -110.90668      1061.3368      0.0031151429  -0.0060562672  -0.0014368742   0.003130155   -0.0060746808  -0.0014379075   0.0031252663  -20.282725     -17.363313     -7.4430109      5.4310932      12.17284      -8.1259373      64.576117      62.308923      54.406042      3              218911.86      1.2569611      9175.286       11996.934     -2984.5607      906.40068     -1007.767      -17397.334     -27093.481     -45498.581      15.6         
     15800   297.33184     -26495.86       17781.631     -8714.2296      147.91065     -554.75886      684.17233      314.31848      0.0031550177  -0.0068521858  -0.0013452962   0.0031702632  -0.0068757698  -0.0013462019   0.0031652485   10.186927     -8.7600945     -2.7249749      2.268672       9.0787288     -16.053751      64.731768      62.42407       54.413106      3              219873.59      1.2514632      9246.9498      11965.511     -3186.2733      901.741       -1019.0754     -17310.763     -27093.951     -45423.789      15.8         
     16000   296.55027     -26405.544      17734.89      -8670.6535     -902.515       -1240.9296     -1170.6334     -295.98198      0.0031948909  -0.0079506662  -0.0016615847   0.0032181661  -0.0079824413  -0.0016629667   0.0032129989   23.310241      8.6490802      12.648197      7.0675275      3.1961024      0.32445846     64.722699      62.533725      54.346466      3              219959.25      1.2509758      9093.7093      12019.098     -2949.295       891.39632     -1022.7531     -17343.2       -27094.499     -45460.452      16           
     16200   299.10091     -26281.673      17887.428     -8394.2451     -425.74557     -558.60207     -852.06404      133.42941      0.0032347625  -0.0089629476  -0.0022642759   0.0032690987  -0.0090033565  -0.0022668433   0.0032637668   5.8360528     -1.9532071     -19.647046      3.1662607     -10.645763     -3.3401215      64.620924      62.568762      54.282585      3              219478.13      1.2537181      9301.303       11935.725     -3034.4229      896.04368     -921.88392     -17365.132     -27093.307     -45380.323      16.2         
     16400   299.51333     -26569.644      17912.093     -8657.5514      111.44315      526.52489      674.68611     -866.88155      0.0032746325  -0.010272837   -0.0019580685   0.0033074017  -0.010325967   -0.001959988    0.0033019443  -16.070855     -5.0058785     -1.6006193      2.200352      -1.1039578     -10.292798      64.577115      62.581274      54.308781      3              219479.06      1.2537128      9269.0413      11860.895     -3235.3279      903.51781     -941.26228     -17333.241     -27093.267     -45367.77       16.4         
     16600   296.32882     -26404.309      17721.646     -8682.6627     -6.9061707     -234.41125     -316.81585      530.50859      0.003314501   -0.011725818   -0.0013904588   0.0033415484  -0.011795108   -0.0013914264   0.0033359779  -9.0509844      5.9717033     -10.40812      -0.021323867    7.0976527     -4.553986       64.601453      62.612419      54.342771      3              219808.53      1.2518336      9233.2019      11908.345     -3062.45        916.32734     -952.61142     -17352.48      -27094.641     -45399.733      16.6         
     16800   297.62166     -26440.784      17798.963     -8641.8207     -97.751267     -841.97125      1295.3076     -746.59018      0.0033543678  -0.013628279   -0.0013468889   0.0033809113  -0.013721996   -0.0013477968   0.0033752089   3.8631757      6.6509381      9.2880687      4.6333174     -3.0679527     -4.6047095      64.593624      62.593816      54.385927      3              219891.08      1.2513636      9199.9226      11882.789     -3051.737       941.37373     -950.07282     -17368.964     -27094.096     -45413.132      16.8         
     17000   298.89316     -26357.451      17875.004     -8482.4472     -432.45148      175.38753     -20.725626     -1452.0163      0.0033942331  -0.016374132   -0.00098149413  0.0034191589  -0.01650967    -0.00098197611  0.0034133269   16.542794      8.4906528      21.491602     -11.747477     -3.5166299     -11.258265      64.575943      62.543201      54.375683      3              219611.75      1.2529553      9115.0341      12237.069     -3218.9658      872.66073     -932.96062     -17335.799     -27094.49      -45363.249      17           
     17200   297.69918     -26555.875      17803.599     -8752.2753     -188.59824      560.6522      -459.67393     -666.77298      0.0034340967  -0.017421715    0.00012331095  0.0034462526  -0.017575259    0.00012330335  0.0034403279  -20.218726     -2.3264009     -11.644567     -17.066966      0.29866012     7.7064167      64.530692      62.390669      54.291548      3              218583.91      1.258847       9075.5783      11964.764     -3141.4029      891.45073     -880.99053     -17370.639     -27094.636     -45346.265      17.2         
     17400   297.51977     -26563.077      17792.87      -8770.2067     -170.47008     -305.95342      696.00312     -901.45994      0.0034739588  -0.017911156    0.0018082008   0.0034563891  -0.018073502    0.001806568    0.0034504295  -21.310008     -11.299458     -13.323874     -5.567455       0.15177811    -4.0100754      64.697112      62.287518      54.286689      3              218765.72      1.2578008      9230.0586      11927.744     -3145.456       897.04131     -1011.7135     -17367.328     -27093.423     -45472.465      17.4         
     17600   299.69413     -26202.509      17922.905     -8279.6035      76.336899      903.91194     -1281.266       606.36473      0.0035138193  -0.017998591    0.0033145233   0.0034629504  -0.018162535    0.0033090424   0.0034569682   21.222248     -16.366612     -10.889122     -0.87377767     3.2722897     -16.500467      64.867379      62.31744       54.383034      3              219836.29      1.2516755      9257.1339      12123.863     -3123.8521      927.41219     -946.09569     -17346.808     -27094.163     -45387.066      17.6         
     17800   298.28233     -26391.856      17838.474     -8553.3817      345.35862      476.24614      673.89524     -114.06551      0.0035536782  -0.018145168    0.0042552942   0.0034812876  -0.018311811    0.004246266    0.003475242    6.587121       21.801476      21.185509     -1.6149026      2.351487       0.23632062     64.963801      62.283377      54.445918      3              220297.16      1.249057       9160.5554      11982.771     -3050.9616      886.29447     -898.25704     -17379.45      -27092.808     -45370.515      17.8         
     18000   298.94562     -26555.4        17878.141     -8677.2584     -154.99832     -259.6066      -129.22608     -76.162269      0.0035935355  -0.017785528    0.0050085272   0.0035115538  -0.017945592    0.0049960262   0.0035054027   23.784856     -17.398535      3.1088607     -4.1917081      13.787489     -1.6191094      64.955391      62.190342      54.413581      3              219808.99      1.251831       9113.9551      11943.432     -3118.986       879.85312     -911.90879     -17367.414     -27094.332     -45373.654      18           
     18200   296.8693      -26658.473      17753.969     -8904.5038      349.36151      750.22369     -678.47238      976.33323      0.0036333912  -0.016420703    0.0040492249   0.0035756875  -0.016557017    0.0040410488   0.0035693099   3.4591806      9.9289813      0.055219179   -10.00474       7.9875375     -5.6575454      64.778398      62.200885      54.39207       3              219160.54      1.2555349      9087.5771      12040.246     -3382.6729      908.82667     -831.90744     -17386.151     -27094.392     -45312.45       18.2         
     18400   297.32541     -26597.734      17781.247     -8816.4878     -154.73252      347.31751     -437.79552     -373.71955      0.0036732454  -0.01289446     0.0024947849   0.0036478936  -0.012978315    0.0024916781   0.0036412561  -8.8734473     -16.605986     -16.10012      -11.287447      4.9811187     -8.6247383      64.573801      62.211326      54.426755      3              218644.35      1.258499       9192.4617      11848.082     -3149.3786      893.27993     -927.18363     -17360.794     -27094.202     -45382.179      18.4         
     18600   298.38626     -26407.731      17844.689     -8563.0416     -26.182723     -98.095833      330.27216     -310.7245       0.0037130979  -0.0087287738   0.00019011301  0.003715808   -0.0087670927   0.00019009494  0.0037089214  -14.318612     -15.8126       -1.9285174     -5.3141959      10.302153      1.7900688      64.487082      62.273606      54.467365      3              218732.39      1.2579925      9360.4093      11888.433     -3164.8628      913.93591     -958.98668     -17353.416     -27093.243     -45405.646      18.6         
     18800   297.9951      -26570.005      17821.296     -8748.7082      160.90395      296.23199      320.69942     -134.21956      0.0037529489  -0.0060473546  -0.0014388244   0.0037666443  -0.0060657139  -0.0014398605   0.0037595683  -2.525124       0.24601461     21.091658      6.1054197     -8.3494155      7.9956713      64.517412      62.356869      54.461092      3              219102.63      1.2558667      9178.365       12023.518     -3256.6917      910.37849     -994.33099     -17336.594     -27094.65      -45425.574      18.8         
     19000   299.28692     -26545.288      17898.553     -8646.7355      368.23339      392.42583      450.68297      261.59137      0.0037927982  -0.0054168992  -0.0013663921   0.0038070703  -0.0054316238  -0.0013673265   0.0037998418  -18.057272     -13.42547      -15.49555       9.5993918     -11.447853      3.625742       64.540574      62.466665      54.436244      3              219467.03      1.2537815      9230.6174      11887.853     -3143.4826      904.46141     -955.76172     -17374.005     -27094.971     -45424.738      19           
     19200   300.86755     -26143.354      17993.081     -8150.2734     -592.00919     -39.613335     -745.5612      -990.85303      0.003832646   -0.0052255746  -0.0017369498   0.003845753   -0.0052392757  -0.0017384601   0.003838377   -4.5101277      11.175247      0.28414503     2.6661723      3.1264206     -7.1126268      64.637501      62.55313       54.478668      3              220272.4       1.2491974      9136.3426      12034.527     -2893.5996      900.10515     -868.85441     -17357.948     -27093.927     -45320.729      19.2         
     19400   300.11771     -26572.469      17948.237     -8624.2316      22.760264      642.66413      837.71891     -1412.1022      0.0038724922  -0.005289472   -0.0022273831   0.0038882067  -0.0053035108  -0.0022298674   0.0038806671   18.797393      11.119422      3.3682291     -4.3178745      1.2912288      4.5552921      64.668922      62.529943      54.481639      3              220309.8       1.2489853      9092.5149      12052.661     -3270.3585      888.49251     -932.94937     -17308.85      -27093.979     -45335.779      19.4         
     19600   298.22171     -26542.803      17834.849     -8707.9538     -133.70011      26.651341     -624.96766      197.21598      0.0039123368  -0.0055765595  -0.0027568753   0.0039326403  -0.0055921666  -0.0027606825   0.0039249277   0.75578086     0.95462214     5.207825       15.434773      3.2436623     -5.0558542      64.630623      62.403563      54.469261      3              219684.4       1.2525409      9061.0571      11928.858     -3012.3399      896.9834      -992.86242     -17331.302     -27093.197     -45417.361      19.6         
     19800   293.56264     -26404.678      17556.218     -8848.4608     -1000.6318     -794.7313      -855.40201     -1351.762       0.0039521798  -0.006969006   -0.0033002294   0.0039814846  -0.0069934029  -0.0033056872   0.0039735795  -14.027614      9.4341241     -0.82911162     2.14433        5.4640518     -0.4399864      64.59602       62.305144      54.451534      3              219149.14      1.2556002      9135.6176      12004.304     -2990.9628      892.7949      -1022.7498     -17328.859     -27094.824     -45446.432      19.8         
     20000   300.03231     -26605.543      17943.13      -8662.4125     -480.2065      -1136.3478     -29.58775      -274.68397      0.0039920213  -0.0085576465  -0.0043853054   0.0040347744  -0.0085944734  -0.004394949    0.0040266565  -15.83634      -20.55443      -24.509759     -13.048462     -2.0941766     -5.8584292      64.688331      62.209417      54.467293      3              219188.55      1.2553744      9205.3031      12028.791     -3347.5267      900.98149     -989.83192     -17309.061     -27094.198     -45393.092      20           
     20200   298.92751     -26425.145      17877.058     -8548.0865     -189.57426     -651.34053      260.07375     -177.45602      0.0040318611  -0.0091676705  -0.0051721007   0.0040824249  -0.0092099522  -0.0051855223   0.0040741144   8.8763513     -0.93499189     26.655598      4.0155247     -12.833651     -7.3594193      64.811241      62.134147      54.496619      3              219457.4       1.2538365      9118.0569      12021.776     -3084.9921      892.01024     -925.10283     -17353.73      -27093.163     -45371.995      20.2         
     20400   296.16357     -26383.452      17711.764     -8671.6887     -741.13531     -526.95463     -359.09359     -1337.3577      0.0040716994  -0.010875259   -0.0041899638   0.0041210941  -0.010934827   -0.0041987663   0.0041126256   5.6572489     -5.4609008     -7.6190854      8.4081534     -11.652211      5.7909266      64.987453      62.169261      54.488337      3              220144.97      1.2499205      9279.0176      11963.854     -3067.1247      879.61519     -958.71721     -17385.599     -27094.499     -45438.815      20.4         
     20600   300.2672      -26477.595      17957.177     -8520.4174      136.31967     -156.4498       781.04036     -215.63153      0.004111536   -0.012624234   -0.0027467155   0.0041545229  -0.012704597   -0.0027504946   0.0041459167   16.793167      9.7951454      11.546274     -8.9932253     -4.0537104      12.994683      65.00097       62.13359       54.429761      3              219827.85      1.2517236      9199.7424      12006.417     -3158.5031      890.00844     -966.63864     -17354.301     -27094.32      -45415.259      20.6         
     20800   297.76646     -26611.246      17807.623     -8803.6229      54.954845     -304.65503      374.55128      94.968279      0.0041513711  -0.01344211    -0.0010073839   0.0041812485  -0.013533273   -0.0010078916   0.0041725314   2.4814058     -5.5891658      9.357754      -11.889838      6.6749536     -8.1286194      64.951309      62.060046      54.326695      3              218984.45      1.2565445      9136.9256      11868.341     -3120.3106      896.67686     -925.45432     -17372.94      -27094.484     -45392.879      20.8         
     21000   297.77863     -26511.088      17808.351     -8702.7375      411.38537     -692.79752      1155.9274      771.02623      0.0041912046  -0.014123498   -0.00022103488  0.0042185093  -0.014224184   -0.00022105932  0.0042096363  -13.032845     -21.064783     -26.698893      3.8016633      7.273584      -14.414389      64.959653      62.132273      54.22818       3              218869.86      1.2572023      9281.8067      11921.842     -3141.8293      887.51997     -965.88551     -17400.479     -27094.063     -45460.427      21           
     21200   301.48368     -26180.401      18029.927     -8150.4739     -411.26227     -683.28179     -399.64153     -150.8635       0.0042310365  -0.014303541   -9.1818456e-05  0.0042517317  -0.014406822   -9.1822671e-05  0.0042427186   9.7037972      7.8905982     -16.013848     -8.1772973      16.067007     -8.6271995      65.043632      62.270601      54.293305      3              219904.5       1.2512873      9238.41        12026.998     -2973.5364      884.16271     -883.78714     -17379.606     -27093.042     -45356.435      21.2         
     21400   298.69851     -26383.568      17863.363     -8520.2048     -242.26223     -75.575245     -498.54751     -152.66393      0.0042708669  -0.014291419   -0.00065659239  0.0042918424  -0.014394525   -0.00065680805  0.0042826587   22.996135      4.3070216      4.9588792      1.6149258     -0.37945635     2.8944167      64.956597      62.35238       54.395454      3              220312.38      1.2489707      9259.9681      11968.727     -3167.3159      927.95693     -921.48581     -17356.596     -27094.822     -45372.904      21.4         
     21600   297.67821     -26480.132      17802.345     -8677.7869     -241.16867      120.43549     -226.78657     -617.15492      0.0043106956  -0.013563755   -0.0026520893   0.0043541433  -0.013656583   -0.0026556123   0.0043446914   13.643448      18.506784      16.776321     -4.8419094      7.6135387      8.7327994      64.712146      62.383753      54.450115      3              219814.38      1.2518003      9135.132       12041.38      -3146.0473      912.39104     -947.22587     -17381.745     -27094.017     -45422.988      21.6         
     21800   295.82221     -26448.063      17691.349     -8756.7135      536.37533     -257.41581      214.25845      1652.2833      0.0043505227  -0.012115215   -0.0050650133   0.0044206381  -0.012189203   -0.0050778839   0.0044108958  -17.900535     -10.66473       10.361018     -15.511778      0.59487667    -2.840471       64.493706      62.386056      54.436616      3              219026.16      1.2563052      9230.5704      12139.186     -3282.2139      904.82387     -977.74864     -17369.199     -27093.481     -45440.429      21.8         
     22000   299.14499     -26329.106      17890.065     -8439.0409     -108.17521     -179.60746      128.84654     -273.76472      0.0043903483  -0.010722755   -0.0055809768   0.0044603027  -0.010780658   -0.0055966086   0.004450385   -8.2089242     -9.1761962     -5.7291528      8.0726052     -13.799282     -1.2287227      64.403256      62.418103      54.42259       3              218774.95      1.2577478      9222.8175      11947.405     -3022.3612      899.21762     -916.125       -17366.064     -27093.996     -45376.185      22           
     22200   297.11048     -26538.758      17768.393     -8770.3647      115.80675      55.1597        653.51084     -361.25028      0.0044301723  -0.0091787733  -0.0049920736   0.0044859872  -0.0092211578  -0.0050045756   0.0044759551  -2.8079223      21.200854      2.1072067     -14.069995      1.9546214      5.3422078      64.357926      62.460653      54.42724       3              218788.69      1.2576688      9156.0293      11995.754     -3137.3843      879.50956     -965.7993      -17372.493     -27094.374     -45432.666      22.2         
     22400   295.67327     -26365.089      17682.442     -8682.6468     -50.19315      -16.973974     -5.8394424     -127.76603      0.0044699947  -0.0072508932  -0.0047145872   0.0045134383  -0.0072773087  -0.004725736    0.0045032832  -10.068829     -14.864514     -14.834525     -5.6625509     -3.5326327     -19.78188       64.413609      62.439737      54.439282      3              218953.09      1.2567245      9257.8963      12028.946     -3069.2794      904.99927     -1035.9279     -17356.982     -27094.74      -45487.651      22.4         
     22600   301.40452     -26171.936      18025.194     -8146.7419     -423.62659     -884.56429     -494.34215      108.02668      0.0045098155  -0.0066986743  -0.0051257436   0.0045530424  -0.0067212111  -0.0051389253   0.0045427086  -7.3727347      11.465946      1.925355       25.592267     -1.3751065     -8.3742633      64.5061        62.411065      54.44588       3              219193.36      1.2553469      9333.3186      11884.284     -2877.3557      895.24612     -944.86869     -17368.686     -27093.873     -45407.428      22.6         
     22800   297.99181     -26429.898      17821.1       -8608.7985     -771.35948     -484.84902     -373.35562     -1455.8738      0.0045496347  -0.0072835965  -0.0054012814   0.0045924737  -0.0073102514  -0.0054159211   0.0045819605   10.027943      21.879969      7.2420473      2.5438149     -4.4356066     -3.5530505      64.6349        62.355957      54.512085      3              219703.93      1.2524296      9213.293       12086.982     -3201.2495      881.02719     -991.89224     -17324.851     -27093.208     -45409.951      22.8         
     23000   298.70544     -26573.229      17863.778     -8709.4514      317.71016      373.87517      114.10859      465.1467       0.0045894523  -0.0083569996  -0.0053288792   0.0046359734  -0.0083921151  -0.0053431283   0.0046252603  -1.2817046      3.6756739     -4.9551163      4.4315826      8.0467856     -7.605675       64.682979      62.167405      54.531026      3              219278.69      1.2548584      9354.8164      11829.444     -3240.1255      867.52492     -954.97032     -17336.12      -27093.798     -45384.889      23           
     23200   298.22279     -26534.361      17834.913     -8699.4478      949.63559      1174.5057      1202.9459      471.45514      0.0046292684  -0.0091105554  -0.0055861736   0.0046774383  -0.0091523103  -0.0056018346   0.0046665331   4.261299      -23.384515      2.2706006     -12.585259     -1.7594537     -13.376134      64.768568      62.031209      54.587397      3              219314.29      1.2546547      9297.857       11871.339     -3118.2928      878.29736     -1008.2639     -17361.933     -27093.365     -45463.562      23.2         
     23400   298.36845     -26340.717      17843.625     -8497.0927      82.378384      303.7402       604.52673     -661.13178      0.0046690828  -0.0092384896  -0.005949332    0.0047190129  -0.0092814291  -0.0059670997   0.0047079132  -7.2844074     -6.2594966      11.798476      7.8648608      12.506099      3.4692405      64.856115      61.982823      54.615056      3              219550.62      1.2533042      9228.698       11893.1       -2862.152       889.46587     -1042.9001     -17353.029     -27093.9       -45489.829      23.4         
     23600   294.73353     -26360.663      17626.242     -8734.4216     -188.98226     -400.4544      -624.6518       458.15942      0.0047088957  -0.0099168621  -0.0067272663   0.0047833326  -0.0099663617  -0.0067499963   0.0047719288   7.7405392     -14.782233      20.322591     -7.4547454     -16.524982     -9.8352013      64.981801      62.02017       54.4673        3              219513.15      1.2535181      9363.9842      11810.197     -2944.6696      907.99662     -1076.6361     -17329.559     -27091.977     -45498.172      23.6         
     23800   299.7917      -26609.001      17928.74      -8680.2612      151.81949     -65.162441      300.68981      219.93111      0.004748707   -0.010284414   -0.0062574516   0.0048355796  -0.010337664   -0.0062771115   0.0048239257   4.1015225      2.3791739     -11.986127      2.6169883     -11.815266      3.3966379      64.981512      62.105934      54.300188      3              219141.31      1.2556451      9199.565       12149.801     -3354.7961      884.13289     -1083.0732     -17310.849     -27093.783     -45487.705      23.8         
     24000   300.55085     -26224.805      17974.141     -8250.6647      739.62225      366.46688      2123.2987     -270.89879      0.0047885167  -0.010344575   -0.004817745    0.0048736319  -0.010398452   -0.0048293878   0.0048617942   12.666468     -12.947187     -12.664254     -0.93186293    -3.0263001     -3.2131588      64.967558      62.206969      54.160156      3              218884.75      1.2571169      9200.988       11950.143     -2873.9602      938.22425     -948.59458     -17397.635     -27093.971     -45440.201      24           
     24200   298.62397     -26290.824      17858.905     -8431.9186     -543.08053     -310.27665     -435.41199     -883.55297      0.0048283249  -0.010288031   -0.002801159    0.004900952   -0.010341318   -0.0028050896   0.0048889815   2.6904159      19.730213     -8.7879691     -2.9419203     -0.74618344    -17.048874      64.955863      62.333942      54.070101      3              218927.41      1.2568719      9236.143       11888.518     -2842.0062      904.86414     -1035.0301     -17350.007     -27093.305     -45478.343      24.2         
     24400   296.04166     -26540.575      17704.473     -8836.1024     -22.926529     -464.53615      200.1065       195.65007      0.0048681314  -0.011166517   -0.00064965087  0.0049232581  -0.011229331   -0.00064986198  0.0049111785  -8.7648545      14.79248      -18.45823       0.37839547     3.8619037     -2.6760296      64.928942      62.372808      54.03014       3              218811.28      1.2575389      9268.2421      11927.234     -3253.5182      909.31007     -1001.3554     -17297.975     -27092.513     -45391.844      24.4         
     24600   296.95339     -26559.612      17758.998     -8800.6141      624.64365      905.54939      1175.8236     -207.44198      0.0049079364  -0.011989382    0.0011499443   0.0049402956  -0.012061834    0.0011492836   0.0049281324   9.7871986     -13.894341     -8.4770677     -6.6863148      6.9580835     -1.1869402      64.828997      62.41132       54.053766      3              218704.96      1.2581503      9341.0737      11830.786     -3252.4169      911.92559     -948.11739     -17349.153     -27093.71      -45390.98       24.6         
     24800   295.95307     -26336.182      17699.175     -8637.0071      652.8811       1140.6786      698.30668      119.65803      0.0049477397  -0.012207321    0.0026355469   0.0049569512  -0.012282443    0.0026320799   0.0049447059  -5.581748       17.797059     -1.3836268      2.2900309      3.5995136      3.2304168      64.673413      62.427277      54.110193      3              218463.68      1.2595398      9303.0838      11957.267     -3117.9755      889.38149     -899.29435     -17374.105     -27094.539     -45367.939      24.8         
     25000   300.62726     -26429.066      17978.71      -8450.3564      369.89932      85.602356      408.22638      615.86924      0.0049875415  -0.01203244     0.0041447213   0.0049604362  -0.012105415    0.0041361556   0.0049481738  -28.797019      6.1132444     -14.845872     -2.7186613      7.2208196      9.6471578      64.636712      62.398936      54.315784      3              219069.79      1.256055       9350.5593      11972.771     -3201.6166      897.49686     -999.92812     -17353.881     -27094.468     -45448.277      25           
     25200   299.02141     -26525.489      17882.674     -8642.8154     -131.46314      153.48286      620.4293      -1168.3016      0.0050273417  -0.012013061    0.0045154272   0.0049773246  -0.012085801    0.0045052632   0.0049649786   1.5809747     -1.5480458      8.5424806     -0.8490398      20.96376       1.2430791      64.667133      62.33164       54.518879      3              219755.16      1.2521376      9155.3671      11942.921     -3162.7586      885.66836     -901.89594     -17353.083     -27091.709     -45346.688      25.2         
     25400   297.18017     -26379.616      17772.561     -8607.0549     -365.62509      4.6049971     -157.47583     -944.00445      0.0050671403  -0.012589493    0.0036200152   0.0050183765  -0.012669412    0.0036134787   0.0050058264   10.051079      9.2829408      17.283499      10.141443      2.7252351     -5.0342907      64.648479      62.244929      54.59998       3              219712.5       1.2523807      9335.9894      11998.432     -3198.7691      904.23037     -1011.4616     -17313.79      -27094.247     -45419.499      25.4         
     25600   298.87626     -26641.823      17873.994     -8767.8292      898.02005      886.41263      1533.9634      273.68409      0.0051069374  -0.014220073    0.0016822017   0.005077823   -0.014322147    0.0016807884   0.0050649744   12.066834     -5.5597273      8.8984283      6.8447125      15.712688      7.0999368      64.563534      62.113824      54.62132       3              219047.22      1.2561844      9344.9527      11928.042     -3367.7931      882.0583      -968.82045     -17366.878     -27093.385     -45429.083      25.6         
     25800   297.76956     -26487.964      17807.808     -8680.1558     -57.111727      202.28554     -254.14125     -119.47947      0.0051467328  -0.015189561   -0.0017239632   0.0051716151  -0.015306104   -0.0017254509   0.0051582882  -12.051169     -12.585769      7.0748783     -8.4413654      12.675875      2.1988016      64.556391      62.057766      54.579888      3              218659.33      1.2584128      9305.4523      11880.667     -3089.0377      887.78263     -1005.6726     -17373.397     -27093.759     -45472.828      25.8         
     26000   298.74064     -26119.541      17865.883     -8253.6581      272.83516      389.64959      798.12207     -369.26618      0.0051865267  -0.015663144   -0.0044763985   0.0052595173  -0.015787107   -0.0044864476   0.0052457344  -14.496908      2.138337      -0.33740161     3.5328875     -7.2595107      4.3743716      64.593338      62.056988      54.536015      3              218605.87      1.2587206      9214.6804      12066.55      -2872.2402      932.40377     -1017.9031     -17348.903     -27094.128     -45460.935      26           
     26200   296.53038     -26343.801      17733.701     -8610.1008      268.62899     -457.29612      748.1798       515.00329      0.005226319   -0.016089174   -0.0063143435   0.0053388878  -0.01622001    -0.0063343633   0.0053246864  -30.296636     -15.105371      17.340676     -5.7287304     -1.7159779     -6.2468623      64.700024      62.072398      54.45205       3              218684.1       1.2582703      9248.1074      12019.571     -3124.2171      909.99705     -931.62886     -17372.613     -27093.018     -45397.26       26.2         
     26400   297.60335     -26450.233      17797.869     -8652.3644     -239.43575     -476.05193      209.95182     -452.20714      0.0052661097  -0.016137053   -0.0078371655   0.005412499   -0.016268673   -0.0078680375   0.0053979041   21.44026       0.5023185      11.639303      5.8548442      5.5700807      1.7875976      64.862658      62.122843      54.361207      3              219045.91      1.2561919      9232.334       12024.527     -3112.7923      909.49576     -1069.8276     -17339.01      -27094.96      -45503.797      26.4         
     26600   296.2791      -26546.205      17718.673     -8827.5323     -123.7648      -507.54291     -186.97183      323.22034      0.0053058988  -0.016186159   -0.008447674    0.0054688438  -0.016318586   -0.0084835578   0.0054539439   8.972555       6.1412942     -15.504197     -6.6011641     -13.282264     -4.464569       64.843151      62.173218      54.299378      3              218908.34      1.2569814      9243.099       11825.025     -3090.3811      902.72216     -985.26515     -17346.685     -27094.721     -45426.671      26.6         
     26800   295.44522     -26578.246      17668.804     -8909.4423     -570.78088     -451.11486     -427.83379     -833.39398      0.0053456863  -0.015604562   -0.008219395    0.0054977669  -0.015727595   -0.0082533605   0.0054827094   20.187962     -21.50359      -10.966502     -6.6461464     -5.7469066      8.8936269      64.745721      62.237964      54.327214      3              218919.21      1.2569189      9047.8057      11925.521     -2991.3443      894.06782     -986.05055     -17374.139     -27094.107     -45454.296      26.8         
     27000   300.05054     -26512.551      17944.22      -8568.331       145.53896      47.352597      456.93982     -67.675524      0.0053854723  -0.015232986   -0.0069800141   0.0055112768  -0.0153502     -0.0070044883   0.0054961453  -4.8638381      8.3344623      1.9287698      7.6590832     -2.8357409     -8.8863472      64.633328      62.295384      54.374556      3              218931.43      1.2568488      9254.3253      11929.131     -3203.8942      900.79806     -947.1622      -17353.924     -27091.825     -45392.911      27           
     27200   296.97306     -26544.195      17760.174     -8784.0209      496.54334      541.12631      1768.1464     -819.64273      0.0054252566  -0.015202759   -0.0064621896   0.0055390988  -0.015319505   -0.0064831599   0.0055238144  -6.7333796     -5.0717113      3.237937      -2.9414827      6.5915931     -7.3331156      64.564486      62.383185      54.416056      3              219173.63      1.2554599      9378.6126      11834.539     -3296.1167      897.34348     -909.23003     -17355.007     -27094.336     -45358.574      27.2         
     27400   297.38687     -26496.652      17784.922     -8711.7303     -106.88647     -827.34905      397.57067      109.11896      0.0054650394  -0.013968603   -0.006340439    0.0055684543  -0.014067082   -0.0063606249   0.0055530078   2.4308078      8.3425176      4.7350198     -16.639472     -5.4336001     -1.6613083      64.519361      62.490181      54.426759      3              219439.25      1.2539402      9181.8652      11975.06      -3172.4899      876.69786     -919.97169     -17344         -27093.814     -45357.785      27.4         
     27600   300.74725     -26453.667      17985.886     -8467.7815      114.36626     -374.72728     -16.494369      734.32045      0.0055048206  -0.010796505   -0.0056004584   0.0055850357  -0.010855211   -0.0056161997   0.0055694972   11.635148      18.394409      2.7087259     -16.097073     -2.5785635     -0.79314086     64.448083      62.469816      54.382997      3              218949.2       1.2567468      9089.6497      11971.551     -3005.131       890.76687     -947.14806     -17359.561     -27093.795     -45400.504      27.6         
[...]
    744000   296.47864     -26230.92       17730.606     -8500.3141      550.12981      817.04102      120.34865      712.99976      0.13871792    -0.0077489854  -0.012043459    0.14866622    -0.0077791648  -0.012116569    0.13860146    -7.4178839     -3.5015859     -18.982926      2.2054386      3.3371179      73.638265      64.979832      62.233041      54.108805      3              218810.19      1.2575452      9195.0632      12074.513     -2948.8369      907.38291     -997.34635     -17366.054     -27095.642     -45459.042      744          
    744200   296.2904      -26153.182      17719.349     -8433.833      -650.58932     -839.31066     -1582.2403      469.78295      0.13875274    -0.0055929054  -0.011144725    0.14847361    -0.0056086043  -0.011207293    0.13843376     3.1994023      15.018591      5.8030856     -1.1117393     -0.91877461     80.91979       65.055062      62.210335      54.184414      3              219289.59      1.254796       9132.62        12135.497     -2909.8335      919.92283     -991.64626     -17344.661     -27095.081     -45431.388      744.2        
    744400   295.11738     -26162.269      17649.198     -8513.0717     -988.50479     -376.04968     -1491.9284     -1097.5363      0.13878755    -0.0034879521  -0.010798087    0.14836573    -0.0034940492  -0.010856809    0.13833983    -14.785754     -8.4860287     -4.2659921      3.7205484      12.455007      81.768151      65.13813       62.089496      54.23047       3              219329.37      1.2545685      8985.2337      12150.295     -2771.671       893.2746      -996.93041     -17327.212     -27095.26      -45419.402      744.4        
    744600   299.08879     -26181.489      17886.704     -8294.7852      362.1865      -140.28799      322.65183      904.19565      0.13882237    -0.001532208   -0.011639935    0.14820131    -0.001533383   -0.011708209    0.13819664     7.0451608      4.0940245      7.1260191      6.2723511      7.9416473      83.064126      65.273748      62.026495      54.298421      3              219838.12      1.2516651      9372.6979      12132.203     -3152.8124      898.2863      -977.21754     -17358.53      -27096.116     -45431.864      744.6        
    744800   297.3144      -26173.729      17780.588     -8393.1412      502.096        337.89729      1141.6918      26.698869      0.13885719    -0.00016487968 -0.013002151    0.14803302    -0.00016489327 -0.013087419    0.13805006     11.405506     -8.4601888     -2.5064958     -3.4896897     -2.727618       88.823279      65.289594      62.027569      54.36889       3              220180.67      1.2497178      9289.4098      12082.946     -3060.0337      909.81143     -944.51864     -17357.359     -27093.985     -45395.863      744.8        
    745000   297.48643     -26237.855      17790.876     -8446.9791      181.66195      107.87544     -433.96226      871.07267      0.138892       0.00050144816 -0.014040887    0.14802919     0.00050132247 -0.014140393    0.13804672     9.6454808      6.6427894      15.648932      15.174094     -5.0396893      82.771778      65.230729      62.000957      54.380669      3              219935.42      1.2511114      9213.0457      12042.351     -3091.8439      926.72048     -914.45942     -17319.796     -27093.873     -45328.128      745          
    745200   294.90571     -26051.547      17636.539     -8415.0083      248.51824      487.53882      405.48424     -147.46834      0.13892681    -0.00089500416 -0.014293787    0.14806127    -0.00089540492 -0.014396927    0.13807467    -7.68717       -12.467062     -8.6140469      17.112884     -8.5986771      72.017833      65.145481      61.968727      54.390568      3              219573.77      1.253172       9121.8943      12041.075     -2757.8712      909.18059     -901.9996      -17367.872     -27095.954     -45365.826      745.2        
    745400   295.20703     -26274.474      17654.559     -8619.9151     -201.3141       448.9481      -687.89079     -364.99961      0.13896162    -0.0031714799  -0.01337612     0.14789148    -0.0031765197  -0.013466386    0.13792677    -1.5845052      3.2012124      1.2258801     -4.2054283     -15.78673       82.36424       65.102841      61.964497      54.480201      3              219776.66      1.2520151      9152.6443      12037.598     -2955.5         905.38129     -966.39079     -17351.493     -27096.714     -45414.598      745.4        
    745600   300.31166     -26153.432      17959.836     -8193.596       65.962965      1064.1484     -805.16767     -61.091877      0.13899643    -0.0065669611  -0.010856848    0.14776874    -0.0065886184  -0.010916214    0.13781983    -23.512989     -12.773159     -2.0348184     -4.0531769      1.1825158      94.874029      65.107525      61.952835      54.552482      3              220042.66      1.2505016      9210.0146      11924.032     -2889.0966      926.77004     -851.17605     -17378.222     -27095.755     -45325.153      745.6        
    745800   296.16728     -25996.53       17711.986     -8284.5448     -1233.3687     -467.41115     -2011.6777     -1221.0173      0.13903124    -0.0097924828  -0.0084327679   0.14753621    -0.0098407445  -0.0084685249   0.13761722    -4.4223445      1.1261067      9.0858617     -6.1603637      17.843529      90.04761       65.248994      62.055127      54.658544      3              221314.34      1.2433162      9101.2612      12109.292     -2707.8164      913.58857     -966.05248     -17351.059     -27095.744     -45412.856      745.8        
    746000   298.41636     -26168.103      17846.49      -8321.6138     -280.13251      273.20446     -858.80953     -254.79245      0.13906605    -0.011433319   -0.0071029233   0.14756421    -0.011499182   -0.0071282691   0.13764161     26.177607      31.748104      17.114611     -20.144763      8.8943303      86.493965      65.287686      61.990825      54.661756      3              221229.11      1.2437952      9121.6294      12188.327     -3047.9867      920.84807     -912.50979     -17341.728     -27096.683     -45350.921      746          
    746200   298.61672     -26123.015      17858.472     -8264.5425     -4.2793973     -1003.0816      774.40723      215.8362       0.13910085    -0.012035583   -0.0070783987   0.14787691    -0.012108597   -0.0071035695   0.13791407     8.2989309     -2.6335408      17.708235     -5.3212582      11.243326      76.764198      65.237232      61.883037      54.560154      3              220263.6       1.2492473      9412.0418      12186.582     -3301.1744      898.93595     -895.93627     -17327.963     -27095.501     -45319.4        746.2        
    746400   298.95716     -26233.002      17878.832     -8354.1703     -568.85347      10.582263     -1117.4765     -599.66613      0.13913566    -0.01185436    -0.0078832059   0.14813397    -0.011925184   -0.0079144426   0.13813799     1.5591873     -29.099252     -7.0934144     -4.5351421      6.647689       86.428151      65.117641      61.879943      54.481527      3              219532         1.2534104      9070.3209      12000.989     -2818.1281      897.32285     -933.59625     -17354.845     -27095.066     -45383.507      746.4        
    746600   295.69061     -25994.18       17683.479     -8310.7004     -959.46015     -748.52843     -991.51282     -1138.3392      0.13917046    -0.011000664   -0.0092904443   0.14814925    -0.011061619   -0.0093338696   0.1381513     -8.1610169     -3.6770597     -2.1307423     -14.867939      12.383637      87.178338      65.073468      61.999477      54.493591      3              219855.54      1.2515659      9015.7231      12232.501     -2796.0971      928.95086     -947.18942     -17332.528     -27095.54      -45375.258      746.6        
    746800   301.78468     -26198.26       18047.928     -8150.3312     -96.353415     -1071.0347      329.32918      452.64532      0.13920527    -0.0095916199  -0.011069227    0.14836475    -0.0096379157  -0.011130947    0.13833898    -15.44039       7.7085425      0.9406019      1.8547187      1.7378984      93.327044      65.072732      62.084429      54.429086      3              219893.69      1.2513488      9248.6241      12152.442     -3130.44        906.50055     -971.76523     -17308.765     -27094.855     -45375.386      746.8        
    747000   296.66783     -26156.426      17741.921     -8414.505       370.64412      549.92181      689.42792     -127.41736      0.13924007    -0.0087942069  -0.013340417    0.14855099    -0.0088331042  -0.0134302      0.13850114    -3.0149334     -2.6537543      1.8593976      3.5719563      5.5116091      87.777474      65.072355      62.114906      54.377403      3              219791.46      1.2519308      9171.733       12049.57      -2947.0226      888.85247     -884.68343     -17339.391     -27095.484     -45319.559      747          
    747200   298.58742     -26326.035      17856.719     -8469.3159      155.45534     -384.79481      412.49602      438.6648       0.13927487    -0.0071497521  -0.01417761     0.14860391    -0.007175434   -0.014279072    0.13854722    -9.4532546     -2.5269722     -4.2406103     -18.687103     -2.1870201      87.03393       65.190301      62.147918      54.366383      3              220262.22      1.2492551      9192.5584      11975.277     -2916.2732      890.78883     -1025.8603     -17346.907     -27095.62      -45468.387      747.2        
    747400   297.86185     -26429.561      17813.328     -8616.2334      53.39791       207.65036     -359.55177      312.09514      0.13930967    -0.0048496056  -0.014480457    0.14874129    -0.0048614031  -0.014586322    0.13866681     10.316424      15.99926       8.2180564     -5.7406784     -2.0457143      62.738563      65.248924      62.106174      54.318777      3              220119.29      1.2500663      9071.2675      11978.738     -3019.295       905.50261     -922.49458     -17347.606     -27095.673     -45365.774      747.4        
    747600   299.913       -26168.666      17935.995     -8232.6714     -46.320833     -519.75774     -173.69446      554.4897       0.13934446    -0.0035335306  -0.014991745    0.14894435    -0.0035397883  -0.015105257    0.13884356    -0.5439358      1.0554099      3.1862155      3.8790254     -3.2302734      100.02371      65.304743      62.118295      54.251536      3              220077.82      1.2503018      9195.1823      12096.228     -3005.1815      922.06744     -936.21696     -17345.847     -27094.898     -45376.962      747.6        
    747800   299.42861     -26297.377      17907.026     -8390.3515     -339.67672     -465.29145      83.9714       -637.71012      0.13937926    -0.0014284655  -0.015070477    0.14898801    -0.0014294867  -0.015185191    0.13888156     8.8346491     -6.7222604     -14.588415     -14.998029     -5.8959781      99.28521       65.304227      62.059574      54.238375      3              219814.71      1.2517984      9189.6541      12039.308     -3050.8411      911.36368     -954.16126     -17338.104     -27094.597     -45386.862      747.8        
    748000   295.74603     -26124.856      17686.793     -8438.0632     -237.32745      108.67878     -1426.298       605.63687      0.13941406     0.0005343327  -0.014873668    0.14887729     0.00053419    -0.014985391    0.1387852      11.058837      4.7999943     -6.0053303      4.2740797      8.9150959      84.947684      65.226053      62.07406       54.283017      3              219783.57      1.2519758      9169.6818      12027.971     -2877.3149      908.83957     -938.00341     -17321.015     -27095.015     -45354.034      748          
    748200   300.65667     -26280.381      17980.469     -8299.9118      472.72031      279.51012      885.18789      253.46292      0.13944885     0.0020572754  -0.014856053    0.14874646     0.0020551621  -0.014967509    0.13867131    -1.9214302      19.253719      1.6576114      2.3891818     -2.0113486      78.102196      65.157568      61.968788      54.337427      3              219400.16      1.2541636      9220.6692      12053.007     -3066.1931      911.04814     -948.3353      -17354.565     -27096.012     -45398.912      748.2        
    748400   295.86551     -26223.299      17693.939     -8529.3602      177.58468     -392.45856      613.23852      311.9741       0.13948364     0.0032744751  -0.014675717    0.14863401     0.0032691257  -0.014784471    0.13857342    -8.3068268     -19.048774     -14.75298      -4.2024413     -4.753316       76.970437      65.152516      61.888902      54.387077      3              219300.53      1.2547334      9185.8889      12057.725     -3014.5742      906.00932     -916.18861     -17346.973     -27095.186     -45358.348      748.4        
    748600   298.97441     -26298.225      17879.863     -8418.3615     -105.5231      -117.86972     -154.08425     -44.615339      0.13951843     0.0037697997  -0.015110678    0.14840402     0.0037627118  -0.015226007    0.13837317     3.8622947     -18.230714      11.415179      19.223751      0.37524496     87.209941      65.094727      61.86617       54.483336      3              219413.19      1.2540892      9221.9142      11916.581     -2957.6969      918.45816     -949.76762     -17351.223     -27096.491     -45397.481      748.6        
    748800   301.09406     -26139.168      18006.627     -8132.5408      915.12981      731.02776      1145.6943      868.66735      0.13955322     0.0022526033  -0.0158803      0.14847453     0.00225007    -0.016007743    0.13843457     0.45213963    -12.83098       23.757797      9.697201       5.3567157      89.098597      65.02031       61.948634      54.479201      3              219437.83      1.2539484      9291.2782      12034.37      -2964.3708      918.44883     -972.86408     -17351.603     -27094.427     -45418.894      748.8        
    749000   295.88495     -26052.208      17695.101     -8357.1069     -461.26267     -281.2618      -911.73416     -190.79204      0.13958801     3.9340572e-05 -0.017150969    0.1486022      3.9339798e-05 -0.01729975     0.13854573    -8.175925      -7.4871901     -7.6011824     -5.267434      -2.1932368      83.90015       64.973254      62.13817       54.458419      3              219866.01      1.2515063      9228.1312      12045.208     -2851.3391      934.02574     -972.27404     -17340.85      -27095.11      -45408.234      749          
    749200   296.53763     -26175.357      17734.134     -8441.2227     -716.6312      -762.23097     -436.10153     -951.5611       0.1396228     -0.001727233   -0.017685493    0.14888101    -0.0017287264  -0.01784375     0.13878843     5.6439281      20.288323      14.168807     -0.59249917    -4.5630109      81.329959      64.948439      62.333049      54.380534      3              220156.02      1.2498577      9105.6037      12144.938     -2946.7602      914.58831     -982.78823     -17316.058     -27094.88      -45393.726      749.2        
    749400   296.76184     -26174.422      17747.543     -8426.8785     -181.31559     -620.13323      522.53436     -446.34789      0.13965759    -0.0028366542  -0.017617633    0.14924427    -0.0028406851  -0.017774671    0.13910457    -21.34035       17.969214      2.3555022     -7.6533994     -13.99758       95.754124      64.923446      62.403589      54.267823      3              219863.7       1.2515195      9206.0071      12051.291     -2901.389       901.19375     -987.82187     -17348.073     -27095.63      -45431.525      749.4        
    749600   298.73499     -26229.801      17865.545     -8364.2562      32.401026      866.30147     -512.65769     -256.4407       0.13969237    -0.0027674768  -0.01659782     0.14956261    -0.0027713133  -0.016737108    0.13938153     0.13526482     28.4828       -14.315857     -13.040328     -2.9814969      81.853782      64.983929      62.328821      54.16447       3              219386.23      1.2542433      9238.1254      11985.639     -2982.7676      909.83978     -939.76887     -17345.654     -27095.215     -45380.638      749.6        
    749800   298.30732     -26241.684      17839.968     -8401.7159      210.9927      -290.07389      824.49774      98.554254      0.13972716    -0.0023262672  -0.015005793    0.14949289    -0.0023289772  -0.015119519    0.13932088    -3.1174003     -0.025340624   -28.652171      0.23107095    -1.3539195      91.11172       65.052383      62.135267      54.201928      3              219086.75      1.2559578      9162.293       11927.774     -2815.8674      895.05542     -979.62676     -17337.023     -27094.29      -45410.94       749.8        
    750000   296.91632     -26320.45       17756.782     -8563.6686     -119.3744      -1141.8562      380.28063      403.45238      0.13976194    -0.0014735822  -0.013726399    0.14916624    -0.001474669   -0.013821477    0.13903667     13.665475     -16.171003      12.031444     -1.0916701      5.0260632      73.97122       65.123806      62.045771      54.332545      3              219539.16      1.2533696      9130.3737      12058.4       -2918.8378      899.99497     -1067.7526     -17328.406     -27094.222     -45490.381      750          
Loop time of 14404.6 on 16 procs for 750000 steps with 20064 atoms

Performance: 4.499 ns/day, 5.335 hours/ns, 52.067 timesteps/s, 1.045 Matom-step/s
99.0% CPU use with 16 MPI tasks x no OpenMP threads

MPI task timing breakdown:
Section |  min time  |  avg time  |  max time  |%varavg| %total
---------------------------------------------------------------
Pair    | 7617.4     | 7826.9     | 8130.9     | 183.1 | 54.34
Bond    | 2318       | 2425.7     | 2505.9     |  99.8 | 16.84
Kspace  | 1205.6     | 1580.4     | 1861.9     | 519.5 | 10.97
Neigh   | 1783.5     | 1784.1     | 1784.8     |   1.0 | 12.39
Comm    | 217.78     | 226.02     | 233.25     |  32.5 |  1.57
Output  | 86.386     | 86.388     | 86.395     |   0.0 |  0.60
Modify  | 414.94     | 437.15     | 448.6      |  60.4 |  3.03
Other   |            | 37.89      |            |       |  0.26

Nlocal:           1254 ave        1295 max        1209 min
Histogram: 1 1 2 1 1 3 4 0 2 1
Nghost:        11974.9 ave       12039 max       11919 min
Histogram: 4 0 2 2 1 0 2 2 0 3
Neighs:         658512 ave      685980 max      624037 min
Histogram: 1 1 1 1 1 4 3 1 1 2

Total # of neighbors = 10536190
Ave neighs/atom = 525.12909
Ave special neighs/atom = 5.8041268
Neighbor list builds = 29728
Dangerous builds = 0

#-------------------Wrap up-------------------
write_restart   ${myid}.restart
write_restart   shear_3_AroCy_L10_pxld_97_replicate_1_FF_PCFF-class2xe.restart
System init for write_restart ...
PPPM initialization ...
  using 12-bit tables for long-range coulomb (../kspace.cpp:342)
  G vector (1/distance) = 0.18917471
  grid = 18 18 18
  stencil order = 5
  estimated absolute RMS force accuracy = 0.018583093
  estimated relative force accuracy = 5.5962433e-05
  using double precision KISS FFT
  3d grid and FFT values/proc = 1960 648
Generated 45 of 45 mixed pair_coeff terms from sixthpower/sixthpower mixing rule
write_data      ${myid}.data
write_data      shear_3_AroCy_L10_pxld_97_replicate_1_FF_PCFF-class2xe.data
System init for write_data ...
PPPM initialization ...
  using 12-bit tables for long-range coulomb (../kspace.cpp:342)
  G vector (1/distance) = 0.18917471
  grid = 18 18 18
  stencil order = 5
  estimated absolute RMS force accuracy = 0.018583093
  estimated relative force accuracy = 5.5962433e-05
  using double precision KISS FFT
  3d grid and FFT values/proc = 1960 648
Generated 45 of 45 mixed pair_coeff terms from sixthpower/sixthpower mixing rule
Total wall time: 4:00:05
