thermo_style    custom step temp pe ke etotal press pxx pyy pzz v_etrue v_eengxy v_eengxz v_eengyz v_etruexy v_etruexz v_etrueyz                 f_sxx_ave f_syy_ave f_szz_ave f_sxy_ave f_sxz_ave f_syz_ave lx ly lz v_dir vol density ebond eangle edihed                 eimp evdwl ecoul elong epair v_Time

restart         ${nsteps} rst1.a.${myid} rst2.a.${myid}
restart         200 rst1.a.${myid} rst2.a.${myid}
restart         200 rst1.a.shear_2_AroCy_L10_pxld_97_replicate_1_FF_PCFF-class2xe rst2.a.${myid}
restart         200 rst1.a.shear_2_AroCy_L10_pxld_97_replicate_1_FF_PCFF-class2xe rst2.a.shear_2_AroCy_L10_pxld_97_replicate_1_FF_PCFF-class2xe
dump            6 all atom 10000 dump.${myid} #every picosecond
dump            6 all atom 10000 dump.shear_2_AroCy_L10_pxld_97_replicate_1_FF_PCFF-class2xe 
dump_modify     6 scale no sort id


#-------------------Run-------------------
run             ${steps}
run             750000

CITE-CITE-CITE-CITE-CITE-CITE-CITE-CITE-CITE-CITE-CITE-CITE-CITE

Your simulation uses code contributions which should be cited:

- Type Label Framework: https://doi.org/10.1021/acs.jpcb.3c08419

@Article{Gissinger24,
 author = {Jacob R. Gissinger, Ilia Nikiforov, Yaser Afshar, Brendon Waters, Moon-ki Choi, Daniel S. Karls, Alexander Stukowski, Wonpil Im, Hendrik Heinz, Axel Kohlmeyer, and Ellad B. Tadmor},
 title = {Type Label Framework for Bonded Force Fields in LAMMPS},
 journal = {J. Phys. Chem. B},
 year =    2024,
 volume =  128,
 number =  13,
 pages =   {3282–-3297}
}

CITE-CITE-CITE-CITE-CITE-CITE-CITE-CITE-CITE-CITE-CITE-CITE-CITE

PPPM initialization ...
  using 12-bit tables for long-range coulomb (../kspace.cpp:342)
  G vector (1/distance) = 0.184014
  grid = 18 16 15
  stencil order = 5
  estimated absolute RMS force accuracy = 0.024493172
  estimated relative force accuracy = 7.376046e-05
  using double precision KISS FFT
  3d grid and FFT values/proc = 1690 320
Generated 45 of 45 mixed pair_coeff terms from sixthpower/sixthpower mixing rule
Neighbor list info ...
  update: every = 1 steps, delay = 0 steps, check = yes
  max neighbors/atom: 5000, page size: 100000
  master list distance cutoff = 14
  ghost atom cutoff = 14
  binsize = 7, bins = 10 9 8
  1 neighbor lists, perpetual/occasional/extra = 1 0 0
  (1) pair lj/class2/coul/long, perpetual
      attributes: half, newton on
      pair build: half/bin/newton/tri
      stencil: half/bin/3d/tri
      bin: standard
WARNING: Inconsistent image flags (../domain.cpp:1051)
Per MPI rank memory allocation (min/avg/max) = 20.28 | 20.36 | 20.68 Mbytes
   Step          Temp          PotEng         KinEng         TotEng         Press           Pxx            Pyy            Pzz          v_etrue        v_eengxy       v_eengxz       v_eengyz      v_etruexy      v_etruexz      v_etrueyz      f_sxx_ave      f_syy_ave      f_szz_ave      f_sxy_ave      f_sxz_ave      f_syz_ave          Lx             Ly             Lz           v_dir          Volume        Density         E_bond        E_angle        E_dihed        E_impro         E_vdwl         E_coul         E_long         E_pair         v_Time    
         0   298           -26635.259      17821.59      -8813.6692      55.727419      360.9731      -398.2192       204.42835      0              0              0              0              0              0              0              0              0              0              0              0              0              64.809685      62.380525      54.432609      2              220063.54      1.250383       9228.7524      11916.385     -3294.5893      887.62155     -911.72018     -17367.967     -27093.741     -45373.428      0            
       200   298.14472     -26298.265      17830.244     -8468.0205     -394.03892     -1096.8644      403.68666     -488.939        3.99992e-05   -0.00039670381  3.9969735e-05  0.00025488963 -0.00039678252  3.9968936e-05  0.00025485716 -4.7354473     -4.2377902     -10.971116      1.6693004      1.5484896     -5.9654701      64.83325       62.32412       54.473824      2              220111.03      1.2501132      9257.3092      12008.299     -3070.6847      869.79398     -932.0145      -17337.095     -27093.873     -45362.983      0.2          
       400   299.93207     -26254.339      17937.135     -8317.2044      122.80061     -510.09342      189.73345      688.76179      7.99968e-05   -0.00092533326  7.9920431e-05  0.00099226203 -0.00092576164  7.9917237e-05  0.00099177007  11.453394      13.208638      19.798147      3.4533765     -1.141533      -3.022919       64.86881       62.265726      54.486776      2              220077.73      1.2503024      9296.1433      11947.084     -3024.9528      887.55177     -905.77868     -17359.706     -27094.682     -45360.166      0.4          
       600   300.33916     -26546.132      17961.481     -8584.6508      353.27301     -59.560047      169.04026      950.33881      0.0001199928  -0.0023707611   0.00011997428  0.002487184   -0.0023735758   0.00011996709  0.002484096   -18.268571     -17.933553     -6.2870855      3.7888276      0.69893941     3.4135634      64.846281      62.226572      54.444108      2              219690.78      1.2525046      9302.6984      11812.105     -3159.9094      851.41186     -889.38179     -17369.903     -27093.153     -45352.438      0.6          
       800   295.95448     -26438.865      17699.259     -8739.6062     -262.84917     -627.6933      -156.32367     -4.5305357      0.0001599872  -0.0038239155   0.00015987536  0.0041163287  -0.0038312454   0.00015986258  0.0041078798  -9.7027337      3.8465406     -19.245504     -11.41486      -3.0824274     -7.4021304      64.935351      62.237876      54.474583      2              220155.67      1.2498597      9292.1223      11981.222     -3298.3451      857.51292     -833.00531     -17344.578     -27093.794     -45271.378      0.8          
      1000   296.33736     -26729.295      17722.157     -9007.1382     -519.51437     -461.18662     -617.21764     -480.13885      0.00019998    -0.0051317149   0.00019941799  0.0069502769  -0.0051449274   0.00019939811  0.0069262351   20.773904     -18.758284      8.4227542     -0.67474884     7.7814794      12.311064      65.066587      62.294434      54.590152      2              221269.51      1.2435681      9237.2853      11972.189     -3500.5746      836.91789     -864.02656     -17317.11      -27093.976     -45275.112      1            
      1200   300.33097     -26312.671      17960.991     -8351.6805     -303.50783     -399.51113      278.50438     -789.51674      0.0002399712  -0.0067213838   0.00023932526  0.0083800864  -0.006744074    0.00023929663  0.0083451684   19.261273      8.6238094      25.993734      12.930068      8.0315463      10.221626      65.066442      62.343901      54.584155      2              221420.4       1.2427207      9171.3225      11938.954     -3097.2194      869.11992     -738.06477     -17361.892     -27094.891     -45194.848      1.2          
      1400   296.49311     -26387.251      17731.472     -8655.7792      131.18223     -62.244765      732.09826     -276.3068       0.00027996081 -0.0087255618   0.00027986664  0.0087991826  -0.0087638525   0.00027982749  0.0087606954   17.450955      9.5261215      10.616173     -6.2355122      1.2268792      10.494645      64.920006      62.363274      54.456436      2              220473.64      1.2480571      9334.7101      12052.629     -3325.0675      856.56134     -855.03251     -17358.288     -27092.764     -45306.084      1.4          
      1600   296.82857     -26604.514      17751.533     -8852.9801      1212.9818      1173.6744      1178.1804      1287.0907      0.00031994881 -0.010089715    0.00032053436  0.0085588674  -0.010140961    0.000320483    0.0085224479  -10.171452     -3.6224487     -20.321706     -15.710361     -12.520849      0.78836051     64.743373      62.370977      54.339872      2              219430.24      1.2539917      9336.4302      11918.046     -3498.6411      873.57908     -779.49605     -17360.622     -27093.81      -45233.928      1.6          
      1800   296.60146     -26418.461      17737.951     -8680.5097     -414.25907     -537.12405     -739.01327      33.360128      0.00035993522 -0.010220396    0.00036037835  0.0085303759  -0.010272983    0.00036031343  0.0084941979  -18.336597     -17.075064     -12.733005     -9.4389206      7.2108788      1.1435273      64.662157      62.492727      54.37348       2              219718.59      1.2523461      9254.4193      11778.25      -2940.6765      879.55715     -916.32464     -17380.413     -27093.273     -45390.011      1.8          
      2000   299.65453     -26334.037      17920.537     -8413.4996     -155.92396      13.545007     -788.20671      306.88984      0.00039992002 -0.0096399771   0.0004003088   0.0080591171  -0.0096867425   0.0004002287   0.0080268158   0.44787451     22.430142      14.864191      1.6622789     -15.376841      3.085327       64.656476      62.484361      54.388848      2              219731.96      1.2522699      9303.3958      11964.049     -3127.2991      886.53375     -936.21054     -17331.29      -27093.216     -45360.716      2            
      2200   296.87117     -26459.039      17754.081     -8704.9574     -260.33884     -49.257699     -956.32995      224.57112      0.00043990323 -0.0087966727   0.00044056759  0.0074041399  -0.0088355919   0.00044047056  0.0073768638   11.43298       10.727779     -9.3301745     -1.4355943      1.4140203      1.7556755      64.646871      62.422713      54.360988      2              219370.13      1.2543353      9157.4896      12016.893     -3136.4325      869.40833     -936.41966     -17336.186     -27093.792     -45366.397      2.2          
      2400   296.89389     -26268.588      17755.44      -8513.1478     -767.89832     -409.77011     -1028.2098     -865.71507      0.00047988484 -0.0082031971   0.00048053073  0.0063491122  -0.0082370285   0.00048041532  0.0063290415  -4.2260501     -1.3844261     -16.489274      9.581361       12.549167     -3.3479192      64.551462      62.283519      54.371388      2              218599.74      1.2587558      9202.6232      11923.768     -2854.5214      886.34906     -981.82067     -17351.595     -27093.391     -45426.807      2.4          
      2600   298.02875     -26429.566      17823.309     -8606.2566      465.26743      695.8248       824.94386     -124.96636      0.00051986485 -0.0082621559   0.00051917025  0.0052736018  -0.0082964766   0.00051903553  0.0052597451  -27.352895     -9.0037582     -8.5195016     -3.62997        1.5672759     -5.81158        64.567993      62.183243      54.51884       2              218895.71      1.2570539      9390.2833      12042.221     -3334.6711      871.34244     -954.62258     -17349.927     -27094.192     -45398.741      2.6          
      2800   294.71213     -26374.618      17624.962     -8749.6561     -249.67355     -360.24648     -292.78121     -95.992949      0.00055984326 -0.0072894745   0.00055756769  0.0046993213  -0.0073161726   0.0005574123   0.004688314    11.331005     -12.667159      11.410664     -17.694078      3.689772      -3.2236739      64.604204      62.191606      54.669453      2              219653.07      1.2527196      9335.7908      11984.631     -3190.8973      890.24074     -988.73096     -17312.711     -27092.941     -45394.384      2.8          
      3000   298.30975     -26500.073      17840.114     -8659.959      -635.13455     -999.44664     -303.20785     -602.74916      0.00059982007 -0.0048840639   0.00059714901  0.0047997788  -0.0048960299   0.00059697079  0.0047882965  -2.2729353      20.407086      17.792072      5.0426415      6.305734      -4.0237694      64.573977      62.100176      54.691851      2              219317.35      1.2546372      9180.3169      11968.796     -3113.7231      863.45682     -977.98998     -17326.084     -27094.845     -45398.919      3            
      3200   300.33073     -26264.228      17960.977     -8303.2518      41.630318     -302.92682     -353.16462      780.98239      0.00063979529 -0.0038597947   0.00063744197  0.0040297065  -0.0038672629   0.00063723889  0.0040216089   8.1854982     -14.427147      6.976645       20.116063      7.5101902      16.461701      64.558658      61.984641      54.650593      2              218692.29      1.2582232      9315.2627      12011.5       -3142.8504      883.2689      -909.83748     -17326.597     -27094.975     -45331.409      3.2          
      3400   297.7813      -26353.848      17808.511     -8545.337      -84.863646     -705.01009      907.62706     -457.20791      0.0006797689  -0.004301894    0.00067712415  0.0032269086  -0.0043111738   0.000676895    0.0032217133  -28.584194     -34.123506     -11.720708      3.7841827      3.827141      -7.0038083      64.726327      62.044456      54.663499      2              219523.68      1.253458       9243.3357      12144.687     -3202.0679      877.34619     -992.21487     -17330.632     -27094.302     -45417.148      3.4          
      3600   296.83456     -26404.826      17751.892     -8652.934      -446.96423     -597.21212      162.3318      -906.01237      0.00071974092 -0.0045790295   0.00071676556  0.0023294359  -0.0045895453   0.0007165088   0.0023267269   3.9167226      12.764289      15.10696      -3.4282062      7.3911776      2.1840828      64.940919      62.181939      54.678081      2              220798.42      1.2462214      9223.9131      11912.367     -3043.1318      870.5837      -958.25329     -17316.585     -27093.719     -45368.558      3.6          
      3800   298.66299     -26356.654      17861.239     -8495.4151     -344.3462      -533.96112     -249.48318     -249.5943       0.00075971135 -0.0047618716   0.00075780299  0.001730081   -0.0047732454   0.00075751601  0.0017285861   41.780519      15.54454       12.251226      0.16659699    -11.972235     -8.1470777      64.945001      62.24046       54.590326      2              220665.38      1.2469727      9184.0381      11908.184     -3052.7779      891.56604     -871.00789     -17323.526     -27093.131     -45287.664      3.8          
      4000   300.45216     -26429.89       17968.239     -8461.6513      896.35473      1331.1317      117.4017       1240.5308      0.00079968017 -0.0051967897   0.00079931796  0.0016195735  -0.00521034     0.00079899868  0.0016182634   2.3936622     -12.929766     -6.3864245     -6.0507135      3.4088419     -9.0636996      64.802091      62.29429       54.478971      2              219920.73      1.251195       9234.5949      12126.296     -3380.8885      881.11386     -864.91618     -17332.759     -27093.332     -45291.007      4            
      4200   296.07931     -26297.863      17706.725     -8591.1386     -357.42035     -908.84987     -1126.8522      963.44102      0.0008396474  -0.0055942695   0.00084026965  0.0027029205  -0.0056099761   0.00083991682  0.0026992742  -9.8988762     -20.954602     -17.5751        0.86875307     1.5645716     -3.944882       64.688211      62.465092      54.414929      2              219877.4       1.2514415      9319.8518      11931.434     -3073.0478      879.33875     -916.80382     -17344.696     -27093.939     -45355.44       4.2          
      4400   297.11671     -26380.208      17768.765     -8611.4422      295.26127      283.71357     -230.32461      832.39486      0.00087961303 -0.0065207364   0.0008806138   0.0039995425  -0.0065420893   0.00088022629  0.0039915656   4.319859       14.581267      5.667621       12.296775      9.8302175      0.59215103     64.608576      62.561467      54.394218      2              219861.83      1.2515301      9239.4735      11938.82      -3087.5387      884.82437     -883.33288     -17378.072     -27094.382     -45355.787      4.4          
      4600   297.48361     -26669.155      17790.707     -8878.4475      647.46587      616.52601      993.40379      332.46782      0.00091957706 -0.007383518    0.00092127326  0.0044134484  -0.0074109111   0.00092084915  0.0044037377  -7.7819772      10.30127       8.6772442     -4.5405453      0.058856382    10.78168       64.564469      62.680216      54.356833      2              219977.48      1.2508722      9209.5815      11928.651     -3375.3024      868.208       -853.35236     -17353.12      -27093.821     -45300.293      4.6          
      4800   299.3831      -26333.035      17904.305     -8428.7305     -91.312766     -451.49072      749.09317     -571.54074      0.00095953949 -0.0082445667   0.00096210996  0.00368932    -0.0082787411   0.00096164743  0.0036825312   14.494521      12.939292     -5.2590566      3.1094869      14.818901      3.0448177      64.501962      62.656595      54.312847      2              219503.92      1.2535708      9230.7228      11977.701     -3036.8799      889.42628     -950.14313     -17351.502     -27092.36      -45394.005      4.8          
      5000   295.3421      -26305.437      17662.636     -8642.8008     -368.80946     -203.97291     -300.05709     -602.39839      0.00099950033 -0.0092159951   0.0010020947   0.0036257564  -0.0092587251   0.001001593    0.0036191992  -9.7505719     -15.896111     -0.27480572     2.5689001      6.8145274     -15.06448       64.423527      62.674507      54.318449      2              219322.3       1.2546089      9248.3152      11879.766     -2990.8978      921.59509     -927.27169     -17343.184     -27093.76      -45364.216      5            
      5200   296.89657     -26345.32       17755.6       -8589.7197     -571.43774     -1096.4039     -571.46101     -46.448323      0.0010394596  -0.010123388    0.0010415578   0.0048901018  -0.010174978    0.0010410158   0.0048781841  -7.2930887      5.1090752     -1.0270791     -3.2242404      1.3870156     -2.2863223      64.450881      62.725202      54.350522      2              219722.56      1.2523234      9215.1182      11982.673     -3077.2142      903.90367     -957.90002     -17317.954     -27093.946     -45369.8        5.2          
      5400   301.1729      -26496.072      18011.342     -8484.7307     -525.01586     -712.18861     -493.87581     -368.98314      0.0010794172  -0.010718338    0.0010811563   0.0069113714  -0.010776193    0.0010805723   0.0068875974  -1.7170383      12.89027       10.136566     -10.799864      9.9774298     -0.8585247      64.531816      62.70877       54.37307       2              220032.09      1.2505617      9198.5878      11993.396     -3184.9352      867.57888     -928.83815     -17347.586     -27094.276     -45370.7        5.4          
      5600   298.14107     -26601.715      17830.026     -8771.6889      16.90788       755.53012      209.99088     -914.79736      0.0011193733  -0.0099341746   0.0011213372   0.0088736028  -0.0099838477   0.0011207089   0.0088344638   6.5932215      12.298686     -13.666936     -13.526754      18.760233      5.2521868      64.603678      62.617807      54.365531      2              219927.09      1.2511587      9245.9867      12026.311     -3417.017       886.90487     -940.38302     -17310.731     -27092.787     -45343.901      5.6          
      5800   297.42402     -26562.915      17787.144     -8775.7711      330.84785     -319.52694      1159.9603      152.11021      0.0011593277  -0.0079666253   0.001161304    0.010449503   -0.0079985284   0.0011606302   0.010395284   -8.6922696      1.320703      -7.3092506     -15.328343     -5.9379522     -0.74369235     64.638905      62.398483      54.368491      2              219288.22      1.2548039      9127.7596      11774.053     -2989.0855      903.4009      -952.08448     -17334.422     -27092.537     -45379.043      5.8          
      6000   295.82885     -26579.671      17691.746     -8887.9247      129.57705     -426.84876      696.1136       119.4663       0.0011992806  -0.0056845119   0.0011999477   0.011650509   -0.0057007302   0.0011992283   0.011583165   -8.1852164     -16.149208     -8.6938828      8.1850958      10.110983      10.114438      64.696988      62.218789      54.431259      2              219105.86      1.2558482      9150.3757      11799.605     -3049.773       880.728       -928.26231     -17338.307     -27094.037     -45360.607      6            
      6200   297.00363     -26271.572      17762.003     -8509.569       84.17368      -230.16426      723.84295     -241.15765      0.0012392318  -0.0038307977   0.0012382684   0.012334212   -0.003838154    0.0012375024   0.012258765    16.447498     -9.7605106      22.290811     -1.1958822      5.9995558     -2.8636972      64.697532      62.157342      54.504551      2              219186.05      1.2553887      9270.5458      11950.797     -3038.4221      911.9526      -930.99248     -17340.458     -27094.994     -45366.445      6.2          
      6400   299.18694     -26574.448      17892.573     -8681.8748      412.92588     -329.65558      832.12617      736.30705      0.0012791815  -0.0030654059   0.0012777355   0.01285337    -0.0030701139   0.0012769199   0.012771466   -2.6516569     -2.2443159     -22.139269      17.729961     -0.62041109     6.7970488      64.699641      62.171381      54.52454       2              219323.11      1.2546042      9268.0207      11913.504     -3193.2244      882.09581     -962.76735     -17386.938     -27095.14      -45444.845      6.4          
      6600   299.12547     -26528.876      17888.897     -8639.9784      803.75988      732.93547      718.39462      959.94955      0.0013191296  -0.0043243801   0.0013183759   0.012776354   -0.0043337573   0.0013175077   0.012695425    5.1376676     -2.4282208      16.233569      19.453253      12.053024      1.5079972      64.701186      62.198359      54.495178      2              219305.36      1.2547058      9181.9019      11879.213     -3073.941       901.0283      -928.47096     -17393.992     -27094.615     -45417.078      6.6          
      6800   297.21065     -26367.473      17774.383     -8593.0897     -310.87756     -634.70834      305.322       -603.24633      0.001359076   -0.0063886128   0.0013582003   0.012172973   -0.0064091073   0.0013572787   0.012099478   -14.237261     -18.589467     -4.883288      -1.2100158      13.543234      13.329874      64.65982       62.313625      54.50066       2              219593.39      1.2530601      9217.0979      11837.783     -2915.5088      918.56965     -968.34028     -17363.787     -27093.287     -45425.414      6.8          
      7000   294.97544     -26529.645      17640.709     -8888.9361     -182.69506      397.23779     -686.55761     -258.76536      0.0013990209  -0.008591179    0.0013975933   0.0097797787  -0.0086282959   0.0013966176   0.0097322662   8.3754171      13.243945      5.7335148     -2.9164994     -3.0328795      21.338024      64.633902      62.453003      54.523695      2              220089.32      1.2502365      9198.6216      11976.085     -3295.7497      874.40061     -841.2461      -17347.757     -27093.999     -45283.002      7            
      7200   298.46898     -26320.359      17849.636     -8470.7231     -110.74796      79.3107       -963.96328      552.40869      0.0014389642  -0.010215712    0.0014394056   0.0072624444  -0.01026825     0.0014383707   0.0072361999   7.2084141     -17.563248      12.909164     -10.127727      0.21946872    -8.0262954      64.640178      62.577197      54.453606      2              220264.9       1.2492399      9279.4087      11995.736     -3199.0248      926.59761     -889.97937     -17338.958     -27094.14      -45323.077      7.2          
      7400   299.8714      -26323.746      17933.507     -8390.2392     -134.80006      362.69352      345.03257     -1112.1263      0.0014789059  -0.011066077    0.0014820759   0.0056300341  -0.011127761    0.0014809787   0.0056142447  -5.1498372      16.797921      2.3060268     -6.0113514      16.318857     -8.9327911      64.619906      62.622458      54.355459      2              219957.92      1.2509834      9226.0209      11953.282     -3017.419       870.85155     -901.26521     -17361.958     -27093.258     -45356.481      7.4          
      7600   299.09079     -26431.291      17886.823     -8544.4674     -372.77062     -459.96769      108.45072     -766.79491      0.001518846   -0.011175937    0.001522357    0.0045803964  -0.011238857    0.0015211994   0.0045699383   0.79532718     4.4721134     -20.691714     -0.78017646     8.8526732     -2.7147787      64.567742      62.716999      54.347718      2              220080.81      1.2502848      9236.3182      12062.592     -3233.0178      876.40572     -935.12508     -17344.972     -27093.492     -45373.589      7.6          
      7800   298.34466     -26454.007      17842.202     -8611.8051     -342.53382     -210.09063     -792.14464     -25.366204      0.0015587845  -0.01106692     0.001560972    0.004560837   -0.011128614    0.0015597549   0.0045504679   8.6998905      7.6158268     -7.763386      -3.6668602     -1.2657478     -9.4059411      64.474082      62.69744       54.398101      2              219896.7       1.2513316      9139.0444      11885.859     -3016.6285      877.1457      -918.03911     -17328.081     -27093.307     -45339.427      7.8          
      8000   298.65365     -26431.506      17860.681     -8570.8252     -673.89939     -346.67724     -807.0747      -867.94623      0.0015987214  -0.010220801    0.0015981535   0.0042725323  -0.010273392    0.0015968779   0.004263431   -1.1061211      6.6647345     -7.4938615     -7.6926458     -13.085659      8.8227557      64.416899      62.63406       54.494951      2              219870.34      1.2514817      9270.3864      11872.881     -3058.5207      872.5717      -971.90773     -17322.739     -27094.178     -45388.824      8            
      8200   298.99984     -26567.867      17881.384     -8686.4823      665.88444      937.78544     -27.163569      1087.0314      0.0016386567  -0.0097478351   0.0016352792   0.0039692765  -0.0097956563   0.0016339436   0.0039614197  -9.5839096     -2.59645        14.288976      0.2106516     -1.6111263     -12.486277      64.394628      62.616156      54.589266      2              220111.79      1.2501089      9292.2157      11916.341     -3302.3343      884.74052     -902.25842     -17363.316     -27093.255     -45358.829      8.2          
      8400   295.41748     -26414.92       17667.145     -8747.7755     -727.5717      -924.58704     -469.92774     -788.20032      0.0016785904  -0.0088819319   0.0016725898   0.003640174   -0.0089216114   0.0016711926   0.0036335646   0.13468947    -3.3619535      1.5161081      7.061408       20.890021      9.2502059      64.395395      62.496602      54.673351      2              220032.54      1.2505592      9282.332       11897.035     -3180.7358      885.61523     -841.9074      -17364.081     -27093.178     -45299.167      8.4          
      8600   298.44605     -26147.528      17848.265     -8299.2635     -486.56345     -797.79232     -85.64677      -576.25127      0.0017185225  -0.0077160076   0.0017120948   0.0023434942  -0.0077459301   0.0017106308   0.0023407525   12.106216      14.167148      20.276355     -6.5814405      11.121252      7.9547222      64.390041      62.375552      54.683735      2              219629.8       1.2528523      9250.9762      12041.484     -2948.6918      889.19124     -960.46921     -17326.247     -27093.772     -45380.488      8.6          
      8800   298.96007     -26600.685      17879.006     -8721.6792      1352.3174      1065.4206      1555.2978      1436.2337      0.001758453   -0.0057932441   0.0017530029   0.0003840183  -0.0058100901   0.0017514682   0.00038394459 -23.194324     -20.207096      6.6436377     -1.5985044      5.7910555     -1.7775561      64.436258      62.259807      54.649815      2              219243.53      1.2550597      9414.2548      11963.01      -3537.0133      893.38308     -873.18819     -17367.401     -27093.73      -45334.319      8.8          
      9000   298.75058     -26516.244      17866.477     -8649.7666      92.861435      349.70631     -209.48283      138.36082      0.0017983819  -0.0037640845   0.0017951624  -0.001404452   -0.0037711865   0.001793553   -0.0014054392  -20.622411     -30.878988      10.960395      1.403287       10.0051       -8.2635553      64.595947      62.264783      54.579181      2              219520.34      1.253477       9171.9431      11808.237     -3019.6803      903.73535     -904.31073     -17382.6       -27093.568     -45380.479      9            
      9200   295.62293     -26220.018      17679.431     -8540.5863     -1044.6771     -1203.7195     -1012.2539     -918.05777      0.0018383093  -0.0030313123   0.0018378268  -0.0013597018  -0.003035916    0.0018361401  -0.001360627    27.117385      6.3968351     -17.568211      16.637908     -2.705994      -21.644745      64.720962      62.348862      54.496863      2              219910.01      1.2512559      9228.9701      11942.171     -2906.4652      902.02198     -943.03853     -17350.464     -27093.214     -45386.716      9.2          
      9400   299.08964     -26449.737      17886.755     -8562.9822     -142.33065     -62.262868     -609.2896       244.56052      0.001878235   -0.0027952778   0.0018817476  -0.00084014698 -0.0027991919   0.0018799793  -0.0008405001  -10.555452     -7.3011267     -4.5377448      2.7265163     -3.7974712     -2.8428772      64.75994       62.4205        54.381975      2              219830.86      1.2517065      9136.1948      12099.312     -3288.7561      874.77947     -822.07122     -17355.718     -27093.477     -45271.267      9.4          
      9600   298.52979     -26586.444      17853.273     -8733.1711     -815.66832     -517.83152     -1037.3536     -891.81979      0.0019181592  -0.0024310034   0.0019233199   0.0007357468  -0.002433963    0.0019214726   0.00073547627  2.3647575     -5.4509543      9.0693798     -4.9967874      4.0291928     -2.8448997      64.860565      62.503959      54.338571      2              220290.85      1.2490927      9167.6868      11925.18      -3149.2834      865.91811     -941.46089     -17359.986     -27094.499     -45395.946      9.6          
      9800   297.67102     -26410.679      17801.915     -8608.764       441.44474     -579.17115      692.20405      1211.3013      0.0019580817  -0.0024697918   0.0019664341   0.0018837959  -0.0024728467   0.0019645032   0.0018820238   40.35667       40.378632      4.8691054      13.894748      2.5694403      11.730668      64.873362      62.530066      54.25434       2              220084.66      1.250263       9251.0911      12102.563     -3323.4751      881.04099     -912.74406     -17316.297     -27092.858     -45321.899      9.8          
     10000   301.90496     -26566.344      18055.122     -8511.222       458.4923      -44.668665      987.06159      433.08397      0.0019980027  -0.0042717006   0.0020083829   0.0018568384  -0.0042808504   0.0020063688   0.0018551166  -0.0057438823  -21.997167     -14.945968      13.168602      13.278331      9.6338691      64.73742       62.547739      54.205242      2              219486.74      1.2536689      9222.8976      11928.203     -3253.7796      879.30944     -908.29899     -17341.157     -27093.519     -45342.975      10           
     10200   297.97706     -26432.472      17820.217     -8612.2544     -168.77987     -654.63401      796.46934     -648.17492      0.002037922   -0.0065102894   0.0020471441   0.0015891326  -0.0065315737   0.0020450515   0.0015878713  -21.402405     -14.496611     -18.020374     -8.8374819      15.418891     -7.0933726      64.62833       62.586685      54.242506      2              219404.04      1.2541414      9254.0435      11938.858     -3005.3376      885.79843     -1074.0132     -17338.104     -27093.717     -45505.834      10.2         
     10400   297.57513     -26614.543      17796.18      -8818.3629      426.12519     -1613.9801      1500.8973      1391.4583      0.0020778398  -0.0083185956   0.002087322    0.0023275611  -0.0083533882   0.0020851466   0.0023248565  -3.1655167      19.027156      13.460016      2.2646451      10.977397     -7.0188021      64.639542      62.58071       54.24144       2              219416.85      1.2540683      9211.9091      11946.812     -3375.062       900.51139     -877.29329     -17327.565     -27093.855     -45298.713      10.4         
     10600   295.70484     -26561.247      17684.33      -8876.9174     -380.93587     -813.45882     -354.31442      24.965628      0.002117756   -0.010066614    0.0021258267   0.0029517959  -0.010117625    0.0021235703   0.0029474479   6.235399       2.7189984     -6.3952273     -13.608894     -8.177517      -4.6787573      64.614385      62.632239      54.283092      2              219680.61      1.2525625      9021.8125      11894.119     -3043.3943      903.14235     -905.37811     -17338.712     -27092.837     -45336.927      10.6         
     10800   296.93657     -26258.436      17757.993     -8500.4439     -725.76134     -1194.9082      305.78865     -1288.1645      0.0021576706  -0.010545609    0.0021661442   0.0042222765  -0.010601608    0.0021638015   0.0042133877   3.9410272      0.82688248     21.242805     -6.5611869     -5.3847542      0.57889653     64.565066      62.618646      54.277639      2              219443.25      1.2539174      9273.1676      11811.295     -2903.7038      904.54234     -885.28712     -17365.147     -27093.303     -45343.738      10.8         
     11000   297.92554     -26577.011      17817.136     -8759.8745      867.9335      -21.888688      1097.3322      1528.357       0.0021975835  -0.010805416    0.0022093171   0.0061421085  -0.010864218    0.0022068801   0.0061233226  -14.033564     -4.0741388     -17.200336     -4.025966       7.166414      -5.2037139      64.549704      62.615046      54.201938      2              219072.46      1.2560397      9343.8465      11864.183     -3389.1575      890.47987     -847.49253     -17345.064     -27093.806     -45286.363      11           
     11200   294.67753     -26542.096      17622.893     -8919.2037      190.56669      1054.0153     -725.55579      243.24056      0.0022374949  -0.010276695    0.0022473473   0.0089067056  -0.010329865    0.0022448257   0.0088672749  -7.3641859     -14.936825     -7.0593336     -7.824723      -0.8362381      15.816522      64.56883       62.691988      54.252398      2              219610.9       1.2529601      9331.3975      11861.866     -3295.5067      904.75662     -881.81344     -17370.366     -27092.431     -45344.61       11.2         
     11400   299.37183     -26406.174      17903.631     -8502.5435     -974.95223     -1606.8399     -200.60297     -1117.4138      0.0022774047  -0.010267386    0.0022877796   0.010744161   -0.010320459    0.0022851666   0.010686852    4.6335349      15.503451      3.8857125      11.790315      13.670135      13.45909       64.582612      62.760501      54.244272      2              219864.9       1.2515127      9041.3368      11900.232     -2873.0126      919.50402     -944.0442      -17355.433     -27094.757     -45394.235      11.4         
     11600   298.42728     -26452.937      17847.143     -8605.7938      904.9554       1397.6865      511.04246      806.13725      0.002317313   -0.010458322    0.0023298499   0.010827818   -0.010513395    0.00232714     0.010769617   -1.7097918      23.333194      4.9195342      0.67732175    -2.7503414      5.1845696      64.589313      62.693702      54.199195      2              219471.14      1.253758       9233.2474      11826.566     -3062.9334      881.52675     -857.33616     -17379.514     -27094.493     -45331.343      11.6         
     11800   297.55204     -26429.728      17794.8       -8634.9281     -148.0876       393.88981     -756.39855     -81.754063      0.0023572196  -0.011467335    0.0023696154   0.010423027   -0.011533592    0.0023668123   0.010369082   -21.556764      5.7030611     -12.878463      9.3882182      6.6035516      5.343489       64.696792      62.529298      54.20867       2              219298.19      1.2547468      9310.9353      11880.073     -3106.4915      875.46391     -936.66337     -17359.623     -27093.422     -45389.708      11.8         
     12000   295.63581     -26692.651      17680.202     -9012.4495      93.561723     -303.27955     -516.26694      1100.2316      0.0023971246  -0.012372992    0.0024067631   0.0098076273  -0.012450174    0.0024038715   0.0097598447   21.144762     -6.8090424     -6.320634      -10.537882     -1.9676872      8.6889625      64.842118      62.336809      54.276919      2              219390.06      1.2542214      9245.4108      11809.05      -3183.6125      895.20959     -1033.8511     -17329.818     -27095.04      -45458.709      12           
     12200   297.965       -26424.031      17819.496     -8604.5348     -39.249523      1148.4195     -611.6438      -654.52431      0.002437028   -0.012480309    0.0024421728   0.0081515503  -0.012558842    0.0024391955   0.0081185058   10.062907     -9.0153889      4.2131976      2.734151      -6.0903972      2.3039981      64.873724      62.239738      54.382252      2              219580.5       1.2531336      9269.7857      11938.309     -3112.4855      881.97541     -938.10107     -17368.477     -27095.038     -45401.616      12.2         
     12400   299.47417     -26352.084      17909.751     -8442.3325     -638.65019     -624.95177     -421.92405     -869.07475      0.0024769299  -0.012960455    0.0024783338   0.0069366423  -0.013045175    0.0024752678   0.0069126945   12.645991     -19.995236     -1.9904436     -5.1925773      1.3306215     -7.4022908      64.82383       62.227639      54.467771      2              219713.94      1.2523725      9116.5438      11865.645     -2850.8363      910.57222     -951.74687     -17348.772     -27093.489     -45394.008      12.4         
     12600   295.44448     -26396.106      17668.759     -8727.3469      395.60263      1033.857      -389.29907      542.24999      0.0025168301  -0.01229148     0.0025193295   0.0065109341  -0.012367646    0.0025161613   0.0064898295  -2.23927        16.982915      19.628795     -7.7547325      5.5275163     -11.568011      64.672144      62.267042      54.445815      2              219250.2       1.2550215      9226.3126      11953.33      -3080.2925      894.26954     -937.92568     -17358.032     -27093.768     -45389.726      12.6         
     12800   294.8665      -26749.369      17634.194     -9115.1748      852.40474     -122.54193      1671.1215      1008.6347      0.0025567288  -0.011817167    0.0025599525   0.0063052788  -0.011887545    0.0025566815   0.0062854837  -24.445136     -17.04921      -16.872962      2.8726842      10.108127      7.3866991      64.614709      62.259865      54.432406      2              218976.29      1.2565913      9334.5762      11980.564     -3642.8125      882.11929     -854.51606     -17356.259     -27093.041     -45303.816      12.8         
     13000   298.81781     -26428.515      17870.498     -8558.0169     -284.57428      714.85395     -597.96932     -970.60748      0.0025966258  -0.010550895    0.0025987437   0.0055216849  -0.010606951    0.0025953728   0.0055064963  -10.341937     -15.855187     -5.2328325     -2.8990395     -3.174896      -3.5153589      64.665418      62.385988      54.457963      2              219695.19      1.2524794      9226.7837      11967.949     -3132.005       887.74942     -946.07483     -17339.502     -27093.415     -45378.992      13           
     13200   299.777       -26449.744      17927.861     -8521.8824     -1015.1614      246.7357      -2009.0834     -1283.1365      0.0026365213  -0.009366549    0.0026357979   0.0052342677  -0.0094106909   0.0026323303   0.0052206165   22.407688      24.099458      11.555735      0.78212774    -3.9957011      7.4066098      64.711451      62.496843      54.518508      2              220487.1       1.247981       9179.8244      11902.395     -3044.2335      894.40543     -960.86589     -17326.685     -27094.585     -45382.135      13.2         
     13400   298.35629     -26525.851      17842.897     -8682.9539      364.39074      1191.9221     -37.14577      -61.604064      0.0026764152  -0.0078519126   0.0026761508   0.004393614   -0.0078829012   0.0026725762   0.0043839902   6.0832809      23.841267      4.6637355     -6.4945366      1.1626612     -5.958993       64.669897      62.397131      54.510241      2              219960.6       1.2509682      9251.4549      11856.301     -3269.0243      906.14861     -828.5594      -17349.38      -27092.792     -45270.732      13.4         
     13600   297.91032     -26434.545      17816.226     -8618.3187      107.03126      688.03515     -607.35592      240.41454      0.0027163075  -0.0057186526   0.0027156601   0.0036282047  -0.0057350667   0.0027119793   0.0036216386  -19.223429     -4.6562159     -2.8707966      5.8254508      8.4016969     -2.0834836      64.704553      62.267758      54.519103      2              219657.87      1.2526922      9296.9959      11930.277     -3190.9092      875.25496     -865.51223     -17387.023     -27093.628     -45346.164      13.6         
     13800   295.12947     -26689.482      17649.92      -9039.5617      135.95162      107.29516     -58.094088      358.6538       0.0027561982  -0.0041899571   0.0027526977   0.0029564076  -0.0041987596   0.002748916    0.0029520461   0.12809349    -12.325454      3.1883361      11.119304      4.8935393     -1.1927982      64.835609      62.217548      54.576628      2              220157.35      1.2498502      9325.2437      11852.397     -3394.3286      884.04402     -891.29932     -17372.907     -27092.632     -45356.838      13.8         
     14000   298.42806     -26671.978      17847.189     -8824.789       780.70007      1120.813       275.58135      945.70583      0.0027960873  -0.003533691    0.0027930041   0.0031898094  -0.0035399493   0.002789111    0.0031847327   27.078831     -6.8697681      6.2413689      12.720187      7.5569011     -11.974687      64.816456      62.172961      54.568529      2              219901.95      1.2513018      9285.7121      11770.295     -3270.1286      893.2841      -896.96164     -17360.383     -27093.796     -45351.14       14           
     14200   299.587       -26325.153      17916.499     -8408.6548      715.2783       967.96561      925.57093      252.29835      0.0028359748  -0.0032690247   0.0028326892   0.0045025135  -0.0032743796   0.0028286847   0.0044924075  -11.413553     -16.416771     -17.717344      5.5068757      16.278807     -3.3406163      64.739592      62.161499      54.572391      2              219616.22      1.2529298      9209.2996      11912.488     -3017.5357      905.85128     -865.1287      -17376.342     -27093.786     -45335.256      14.2         
     14400   296.67041     -26364.233      17742.075     -8622.1585     -882.62639     -714.11055     -505.45617     -1428.3125      0.0028758607  -0.0031356709   0.002866874    0.0062908343  -0.0031405974   0.0028627723   0.0062711296   9.7213377     -24.327823     -0.31467409     0.75473747     1.171553      -5.0941966      64.670264      62.33679       54.680595      2              220435.89      1.2482709      9134.4506      11935.026     -2854.5608      883.18673     -977.22137     -17391.831     -27093.284     -45462.336      14.4         
     14600   297.00462     -26332.359      17762.062     -8570.2973     -211.66298      902.18045     -271.57867     -1265.5907      0.0029157451  -0.0037490292   0.0029077723   0.0090491841  -0.0037560745   0.0029035529   0.0090084855   5.6068811      21.004679      47.375415      5.8405848      2.0218177      2.687242       64.51505       62.540901      54.65911       2              220540.18      1.2476806      9299.0067      11850.424     -3052.2334      891.95631     -856.35706     -17371.221     -27093.934     -45321.512      14.6         
     14800   299.84933     -26213.359      17932.187     -8281.1723      618.87847      1020.6985      485.93778      349.99916      0.0029556278  -0.0052131181   0.0029546036   0.010454665   -0.0052267538   0.0029502474   0.010400393   -7.1888007      44.035719      2.0485509      3.7801486      7.239536       20.436274      64.407472      62.547606      54.528878      2              219671.4       1.2526151      9532.6337      12149.503     -3420.005       891.76275     -897.56595     -17374.515     -27095.173     -45367.254      14.8         
     15000   299.6346      -26338.389      17919.345     -8419.0444      168.9917       93.675179      621.40046     -208.10054      0.002995509   -0.0057681176   0.0029997639   0.01045304    -0.0057848174   0.0029952736   0.010398785   -29.896341     -18.385078     -16.080865     -2.4536311      0.57156303    -2.3310922      64.414236      62.4142        54.433746      2              218843.42      1.2573543      9077.759       11934.95      -2867.9922      898.44524     -893.67        -17394.242     -27093.639     -45381.551      15           
     15200   296.26631     -26487.883      17717.908     -8769.9747     -309.44443     -353.10879     -268.33508     -306.88942      0.0030353885  -0.0060126816   0.0030401441   0.010831307   -0.0060308306   0.0030355322   0.010773069   -0.18043245    -4.872105       4.1448118     -6.5351292      6.7990345      2.1072465      64.527172      62.449519      54.426658      2              219322.6       1.2546071      9142.4186      12046.939     -3031.3379      887.90183     -1071.8339     -17367.61      -27094.36      -45533.804      15.2         
     15400   297.45719     -26483.702      17789.128     -8694.5745      304.61211     -411.77316      1079.8396      245.76993      0.0030752665  -0.0058446954   0.0030864359   0.011068533   -0.0058618425   0.0030816826   0.011007725    13.922317      18.245509      10.687563     -5.067591       20.426701     -2.3145251      64.553962      62.373285      54.315594      2              218698.62      1.2581867      9293.3417      12056.902     -3258.2551      863.81663     -960.21479     -17383.707     -27095.586     -45439.508      15.4         
     15600   299.76858     -26378.328      17927.358     -8450.9696      795.75544      952.01851      989.80038      445.44743      0.0031151429  -0.0054755314   0.0031272893   0.010748971   -0.0054905771   0.0031224095   0.010691612   -9.5328661     -24.259235     -17.194254      6.4081948      0.98674155     7.240261       64.554901      62.349789      54.302409      2              218566.35      1.2589482      9301.9741      12042.682     -3218.6225      902.60003     -968.19868     -17345.024     -27093.738     -45406.961      15.6         
     15800   297.28113     -26221.035      17778.599     -8442.4366     -217.09429     -470.58915     -1009.5686      828.87485      0.0031550177  -0.0054341396   0.0031668497   0.010047924   -0.0054489582   0.0031618458   0.0099977792  -0.058904934    4.9435249     -8.6293961     -5.4543185      13.930014     -4.0737309      64.606432      62.414297      54.311942      2              219005.58      1.2564233      9169.456       12055.371     -2904.6883      902.85927     -975.81275     -17374.643     -27093.577     -45444.033      15.8         
     16000   295.8343      -26353.301      17692.072     -8661.2292     -548.7381      -520.64869      181.11363     -1306.6792      0.0031948909  -0.004109146    0.003205602    0.0097585452  -0.0041176118   0.003200475    0.0097112382   7.9359736      11.395707      22.541413     -7.5224122      9.4457733     -1.9525336      64.690326      62.419849      54.334705      2              219401.38      1.2541566      9168.7633      11884.826     -2815.548       885.65952     -1046.7122     -17336.453     -27093.837     -45477.002      16           
     16200   296.32753     -26857.494      17721.569     -9135.925       1009.3522      1699.091       324.69228      1004.2732      0.0032347625  -0.0022867673   0.0032487612   0.009130027   -0.002289386    0.0032434954   0.0090886003  -12.849245      5.7464765     -13.61148       5.9489197     -0.82338443    -1.7155226      64.729858      62.325452      54.283358      2              218996.31      1.2564764      9256.197       11903.176     -3543.332       889.25701     -884.27001     -17384.775     -27093.747     -45362.793      16.2         
     16400   295.77026     -26373.1        17688.242     -8684.858      -380.23312      199.56361     -768.47094     -571.79203      0.0032746325  -0.0010152037   0.0032863215   0.0084588463  -0.0010157194   0.0032809334   0.0084232708   7.2108636     -7.8010485     -21.586732      7.0728855      15.074818      3.9576523      64.831868      62.232612      54.325762      2              219185.79      1.2553903      9295.7467      12009.826     -3171.8882      918.0117      -970.74295     -17359.895     -27094.159     -45424.797      16.4         
     16600   302.243       -26599.835      18075.338     -8524.4971      863.2515       1730.1287      1317.2331     -457.60724      0.003314501   -6.2374082e-05  0.0033214375   0.0066642814  -6.2376027e-05  0.0033159337   0.0066421732   25.932514     -6.4665525      13.540053      2.7742911      8.3418151      5.5826174      64.89885       62.172479      54.407643      2              219530.62      1.2534183      9263.8349      12000.223     -3366           883.46734     -914.83436     -17372.172     -27094.354     -45381.361      16.6         
     16800   298.14216     -26507.519      17830.091     -8677.4275      60.202006      217.65028     -261.83325      224.78899      0.0033543678   0.00012835009  0.0033571303   0.0043873158   0.00012834185  0.0033515078   0.0043777196   0.88647684    -23.996761      9.6105702      6.2726837      11.238784     -3.6865684      64.902045      62.183764      54.478409      2              219866.87      1.2515014      9203.5045      11951.817     -3145.5046      881.31582     -911.21802     -17392.725     -27094.708     -45398.652      16.8         
     17000   297.48892     -26449.977      17791.025     -8658.9517     -297.97811     -189.59391     -825.52428      121.18387      0.0033942331  -0.00044966349  0.0033955865   0.0028266074  -0.00044976462  0.0033898345   0.00282262     13.961287      16.399017     -0.78282694     14.050982      10.906804     -8.1422109      64.735718      62.254547      54.502931      2              219651.87      1.2527264      9261.5461      11954.326     -3121.7495      908.29927     -1005.2979     -17353.345     -27093.756     -45452.399      17           
     17200   299.74492     -26396.296      17925.943     -8470.353       65.346731      253.12645      151.37695     -208.4632       0.0034340967  -0.0020187719   0.0034324055   0.002162646   -0.0020208124   0.0034265283   0.0021603108   13.146306     -7.362864       5.8076028      3.4653254      18.800151     -19.870526      64.539876      62.274451      54.552703      2              219257.42      1.2549801      9330.0525      11945.089     -3259.8243      895.4732      -868.51114     -17344.932     -27093.643     -45307.086      17.2         
     17400   297.25756     -26491.315      17777.189     -8714.1265      396.65385      879.13249      831.55504     -520.72597      0.0034739588  -0.0034985963   0.0034680789   0.0021300116  -0.0035047307   0.0034620789   0.0021277463  -32.646494     -37.873408     -3.7079943     -3.0872495      7.8971976      18.658834      64.396057      62.470428      54.619371      2              219725.5       1.2523067      9202.7274      11970.154     -3238.5875      890.85253     -865.81976     -17355.661     -27094.981     -45316.462      17.4         
     17600   298.3914      -26319.173      17844.997     -8474.1762     -449.94415     -488.19326     -148.64678     -712.99242      0.0035138193  -0.0044818815   0.0035063088   0.0014379085  -0.0044919552   0.003500176    0.0014368757  -7.1603487      27.671332     -0.81732634    -3.5142795      3.3269402     -11.721332      64.373579      62.616886      54.644872      2              220266.54      1.2492306      9106.093       11988.378     -2892.1513      886.66055     -950.79947     -17363.906     -27093.448     -45408.153      17.6         
     17800   301.39884     -26316.604      18024.854     -8291.7498     -38.751714      658.6499       447.79473     -1222.6998      0.0035536782  -0.0055777971   0.0035482883   0.0012261228  -0.0055934111   0.0035420079   0.0012253717  -4.6485568      29.666235      12.136639      3.7514357      10.358906      0.62637354     64.347879      62.57888       54.612002      2              219912.6       1.2512412      9349.6683      11911.203     -3136.5734      884.51129     -882.54952     -17350.258     -27092.606     -45325.413      17.8         
     18000   299.03332     -26400.529      17883.386     -8517.1432     -289.96403      324.5676      -1113.4154     -81.044291      0.0035935355  -0.006542618    0.0035938848   0.0013119992  -0.0065641147   0.0035874422   0.0013111393  -7.8335173     -9.7368199      9.246205       3.3032998      9.0559956      3.4508841      64.38873       62.506967      54.524946      2              219448.96      1.2538847      9233.7481      11956.354     -3193.0328      897.629       -870.78221     -17330.72      -27093.726     -45295.228      18           
     18200   296.69589     -26415.649      17743.598     -8672.0502     -383.38363     -261.23525     -114.21198     -774.70365      0.0036333912  -0.0069176146   0.0036410936   0.0013163999  -0.0069416522   0.0036344809   0.0013155342  -6.6875932     -6.7773657     -7.7147952     -9.9131361      11.187233     -7.930808       64.531645      62.461825      54.415971      2              219337.95      1.2545193      9274.7441      12010.609     -3101.5045      889.22783     -1018.4137     -17375.73      -27094.582     -45488.725      18.2         
     18400   299.08724     -26568.584      17886.611     -8681.9724      208.55031     -430.76515      1071.8036     -15.387491      0.0036732454  -0.0067972847   0.0036884234   0.0017764458  -0.0068204914   0.0036816379   0.0017748698   3.2647349      0.23363303     4.3581479     -2.4224609      12.805315     -5.037336       64.63673       62.438112      54.307964      2              219175.83      1.2554473      9283.0071      11956.677     -3309.9963      873.59031     -892.06039     -17385.528     -27094.273     -45371.861      18.4         
     18600   301.82593     -26438.851      18050.396     -8388.4549     -253.20558      633.64189     -497.92898     -895.32964      0.0037130979  -0.0060723466   0.0037290129   0.0038067696  -0.0060908583   0.0037220774   0.0037995422  -0.24209169    -3.9197089     -28.160123     -10.336936      18.084735     -17.709677      64.723111      62.460489      54.300398      2              219516.81      1.2534972      9298.2409      11923.496     -3160.5193      908.2029      -953.47058     -17360.768     -27094.032     -45408.271      18.6         
     18800   297.27537     -26518.701      17778.254     -8740.4467     -25.220466      67.309854     -452.06145      309.0902       0.0037529489  -0.0054327421   0.0037680347   0.0066302534  -0.0054475531   0.0037609535   0.0066083699   16.571799      27.975625      14.629499      2.1829017      3.593498       7.393497       64.811753      62.397502      54.315082      2              219655.16      1.2527077      9305.2688      12102.684     -3460.5671      890.65304     -909.18018     -17353.955     -27093.604     -45356.739      18.8         
     19000   297.91802     -26497.463      17816.687     -8680.7764     -454.50134     -1050.266      -663.7275       350.48949      0.0037927982  -0.0050613601   0.0038082655   0.0087844319  -0.0050742122   0.0038010325   0.0087460733  -0.88413994    -6.5229546     -12.624217      6.0106749      5.967742      -2.5575326      64.874513      62.251756      54.3121        2              219342.26      1.2544947      9054.9045      11998.959     -3126.1514      875.45333     -857.00067     -17348.887     -27094.741     -45300.628      19           
     19200   298.38681     -26287.139      17844.722     -8442.4168     -26.555638      118.97911     -505.20553      306.55951      0.003832646   -0.0056486938   0.0038439965   0.010353198   -0.005664708    0.0038366272   0.01029997    -2.9534771     -5.4175178     -0.8347154      11.353903      2.302161       14.3444        64.987954      62.179045      54.372823      2              219714.54      1.2523691      9249.8232      11999.734     -3047.3815      898.5909      -934.17299     -17359.818     -27093.914     -45387.905      19.2         
     19400   299.85851     -26674.092      17932.736     -8741.356       1146.8038      669.82788      1960.4316      810.15185      0.0038724922  -0.0066873182   0.0038770393   0.011529841   -0.0067097785   0.0038695429   0.011463879    6.3606772     -13.090327     -8.2886892     -4.1847944      4.3631668     -1.7219701      65.045234      62.141081      54.470267      2              220167.79      1.2497909      9341.1138      11969.559     -3457.3071      869.26993     -934.28361     -17368.069     -27094.376     -45396.728      19.4         
     19600   298.22483     -26466.217      17835.035     -8631.1822     -210.13036     -486.86599      293.63491     -437.15999      0.0039123368  -0.0067980514   0.0039183211   0.012494521   -0.0068212634   0.0039106645   0.012417109    17.307545     -5.4772091      15.54795      -7.4833801      11.45895       3.0872788      65.00127       62.069081      54.451384      2              219687.87      1.2525211      9184.6124      12022.14      -3220.1505      886.53246     -867.63346     -17378.116     -27093.602     -45339.351      19.6         
     19800   297.56785     -26448.254      17795.745     -8652.5081     -356.86246     -350.73808     -374.85914     -344.99018      0.0039521798  -0.0063757106   0.0039643079   0.013089516   -0.0063961222   0.0039564707   0.013004588   -12.124829     -7.3038087      8.2577676     -0.89214414     6.7570983      5.9228952      64.920549      62.101653      54.368498      2              219196.02      1.2553316      9194.9454      11911.072     -3040.7796      892.4672      -987.9246      -17324.233     -27093.801     -45405.958      19.8         
     20000   298.68566     -26627.209      17862.595     -8764.6135      66.768046     -396.22882     -597.25641      1193.7894      0.0039920213  -0.0065073626   0.0040104932   0.013994701   -0.0065286278   0.0040024726   0.013897679    0.84332785    -10.33301      -2.9404895      4.187645       13.865643     -5.4710859      64.842594      62.203611      54.284562      2              218953.71      1.2567209      9071.5041      11915.358     -3073.3798      862.76515     -958.65068     -17350.331     -27094.475     -45403.456      20           
     20200   298.80758     -26291.945      17869.886     -8422.059      -55.879715      542.3619       23.039751     -733.0408       0.0040318611  -0.0062423123   0.0040551632   0.014719925   -0.006261877    0.0040469632   0.014612639   -6.3762026     -2.0953241     -6.8724607     -4.3468331      10.287936      8.4656134      64.754716      62.425547      54.22288       2              219187.78      1.2553789      9213.9487      12056.402     -3036.0134      896.34124     -968.80192     -17359.733     -27094.088     -45422.623      20.2         
     20400   295.90605     -26495.705      17696.363     -8799.3418      795.80498     -116.83352      1404.6485      1099.6         0.0040716994  -0.0053244807   0.004103938    0.014100689   -0.0053387063   0.0040955399   0.014002199   -1.1865825      34.499925      10.786107     -5.4040586      22.738257      20.712419      64.704741      62.659221      54.109406      2              219378.4       1.254288       9367.6535      12036.64      -3407.1883      901.89255     -932.29372     -17367.038     -27095.371     -45394.703      20.4         
     20600   298.75279     -26626.297      17866.61      -8759.6873     -72.374468     -1179.5182      714.07682      248.31794      0.004111536   -0.0035247344   0.0041503757   0.01206586    -0.0035309609   0.0041417866   0.011993648   -19.735262      1.8989572     -30.391504      2.2685838      4.761587       1.9804273      64.674464      62.74293       54.029976      2              219246.37      1.2550434      9063.2042      11900.633     -3070.6219      902.17486     -970.90724     -17357.525     -27093.255     -45421.687      20.6         
     20800   297.04498     -26503.741      17764.475     -8739.2652     -594.43253     -1691.0632      316.06461     -408.29901      0.0041513711  -0.0026768906   0.0041836429   0.0094383638  -0.0026804799   0.0041749158   0.0093941008   11.459937      25.918714     -18.088596      6.8735716      13.536475      10.541502      64.653713      62.757858      54.122263      2              219602.63      1.2530073      9073.3151      11923.408     -3008.6739      901.72762     -929.92305     -17370.753     -27092.842     -45393.518      20.8         
     21000   298.08375     -26248.157      17826.598     -8421.5586      203.46352     -536.50233      1213.7505     -66.857568      0.0041912046  -0.0025937752   0.0042141992   0.0056969808  -0.0025971449   0.0042053443   0.0056808144  -9.4183337     -4.5296249      6.747642       15.632428      9.6555112     -2.6883405      64.624162      62.752154      54.248001      2              219992.21      1.2507884      9211.4849      12188.397     -3173.1094      899.41186     -928.42292     -17351.086     -27094.832     -45374.341      21           
     21200   298.35522     -26569.004      17842.833     -8726.1706      1100.2523      1258.3732      700.89625      1341.4875      0.0042310365  -0.0038421317   0.0042528356   0.0027115337  -0.0038495317   0.0042438178   0.0027078641  -10.127256      15.330113      3.9662713      6.981449       18.705341     -0.70982853     64.65496       62.610452      54.267796      2              219680.18      1.252565       9230.0064      12015.335     -3379.41        880.43609     -862.02853     -17359.043     -27094.299     -45315.371      21.2         
     21400   298.43546     -26542.351      17847.632     -8694.7196      58.626103     -354.44349      615.68327     -85.361467      0.0042708669  -0.0048569812   0.0042927264   0.0012880656  -0.0048688147   0.004283539    0.0012872368   6.8320515      1.2939991      4.421988      -4.9217808      16.644823     -10.1386        64.686184      62.529349      54.270856      2              219513.94      1.2535136      9137.836       11890.165     -3029.2732      898.96118     -966.61214     -17378.601     -27094.827     -45440.04       21.4         
     21600   297.37222     -26365.504      17784.046     -8581.4585     -272.75717     -539.86838     -4.784484      -273.61866      0.0043106956  -0.0054414225   0.0043318636   0.00036443547 -0.0054562809   0.0043225081   0.00036436908 -11.041225     -13.625227     -6.5291454     -0.65014595     3.8126357     -3.8102242      64.705189      62.509793      54.283192      2              219559.66      1.2532526      9299.6513      11951.659     -3096.6058      898.96633     -937.18946     -17386.403     -27095.582     -45419.175      21.6         
     21800   294.6934      -26519.856      17623.842     -8896.0143      341.21859      376.9022      -47.128873      693.88243      0.0043505227  -0.0055931364   0.0043728161   0.00063007675 -0.0056088366   0.0043632831   0.00062987833  10.824091     -9.4510063      7.2270527     -6.6696825      12.197063      2.3530382      64.736769      62.579664      54.272718      2              219869.92      1.2514841      9314.9284      11983.235     -3267.1053      881.54993     -969.74117     -17369.794     -27092.928     -45432.464      21.8         
     22000   298.21249     -26348.5        17834.298     -8514.2029     -153.1306       353.73685     -563.85865     -249.27         0.0043903483  -0.0057685962   0.004416766   -0.00011527649 -0.0057852988   0.0044070407  -0.00011528313 -9.6970668      7.203281      -4.9298118      5.9255964      10.530934     -1.7151451      64.740272      62.566153      54.22563       2              219643.61      1.2527735      9203.2249      11898.637     -3027.3899      901.07141     -851.16351     -17378.505     -27094.376     -45324.044      22           
     22200   299.61873     -26431.976      17918.396     -8513.58        558.24468     -135.29918      1064.5905      745.44271      0.0044301723  -0.0063940957   0.0044528418  -8.6163291e-05 -0.0064146255   0.0044429573  -8.6167003e-05  0.79593472     12.723889     -6.7268386      4.183594       2.5413906     -12.49532       64.831921      62.524255      54.275269      2              220008.47      1.250696       9257.4842      11885.259     -3193.0881      925.84868     -821.45973     -17391.954     -27094.066     -45307.48       22.2         
     22400   298.16272     -26442.784      17831.321     -8611.4633     -955.54099     -1031.048      -639.61875     -1195.9562      0.0044699947  -0.0071649763   0.0044798016   0.00094784627 -0.007190768    0.0044697971   0.00094739734  26.742657     -7.456612       0.70419122     4.921028       5.635779      -6.1095826      64.869961      62.500078      54.43463       2              220698.54      1.2467853      9194.3207      11952.519     -3043.2207      891.47471     -1008.7178     -17335.215     -27093.945     -45437.878      22.4         
     22600   296.77108     -26522.413      17748.095     -8774.3176     -666.46305      146.16054      16.675896     -2162.2256      0.0045098155  -0.008549285    0.00451606     0.0032488232  -0.0085860397   0.0045058932   0.0032435572   3.1694723      18.851895      17.22247       1.2337101      17.58047      -7.5751189      64.705         62.391587      54.479434      2              219936.07      1.2511077      9063.4896      11939.954     -3104.1166      888.3018      -857.19708     -17358.083     -27094.761     -45310.042      22.6         
     22800   297.97637     -26474.267      17820.176     -8654.0907     -84.830528     -19.540956      692.64309     -927.59372      0.0045496347  -0.0096546663   0.0045584311   0.005124049   -0.0097015748   0.0045480729   0.0051109657  -15.841112     -18.820589     -7.4159817     -9.5170246     -4.1342384      4.013705       64.582338      62.291953      54.450239      2              219051.13      1.256162       9209.4356      11854.136     -3120.9377      902.34194     -855.00061     -17369.789     -27094.454     -45319.244      22.8         
     23000   300.87904     -26437.441      17993.768     -8443.6728     -454.95622     -470.36292     -1098.4228      203.91705      0.0045894523  -0.010816583    0.0045979313   0.0068048551  -0.010875507    0.0045873931   0.0067818066   5.8911072     -9.5919133      6.9375758      10.431606      9.8585564      9.3209757      64.577037      62.312493      54.455436      2              219126.29      1.2557311      9154.11        12011.366     -3016.9693      887.83638     -1028.3205     -17352.187     -27093.276     -45473.783      23           
     23200   298.47282     -26549.31       17849.866     -8699.4445     -89.345125      209.83567     -562.76301      84.89197       0.0046292684  -0.012028498    0.0046399759   0.0075286432  -0.012101425    0.0046292444   0.0075004444  -5.2061553      6.606865       6.3511123     -8.3822541     -1.0823658      4.2097094      64.607944      62.365541      54.430936      2              219319.08      1.2546273      9145.1339      12003.606     -3168.847       897.2713      -1003.5134     -17329.205     -27093.756     -45426.474      23.2         
     23400   298.58067     -26539.074      17856.316     -8682.7581      344.93592      873.99423      145.73843      15.075108      0.0046690828  -0.012159469    0.0046855863   0.0079792332  -0.012234001    0.0046746431   0.0079475675  -9.8240071     -18.150735     -6.435498      -12.192673     -0.074562306   -1.2006428      64.608248      62.39179       54.365559      2              219148.89      1.2556017      9259.8185      11840.276     -3107.0524      900.24183     -958.4723      -17381.235     -27092.651     -45432.358      23.4         
     23600   298.41564     -26479.665      17846.447     -8633.2183     -407.85972     -419.58637     -759.20963     -44.783152      0.0047088957  -0.011233278    0.0047255072   0.0092146131  -0.011296848    0.004714377    0.0091724175   4.7074         34.463148     -1.6372782     -1.6779931      7.7449141     -3.9914877      64.689369      62.41264       54.366433      2              219500.9       1.253588       9219.2937      11907.305     -3064.1492      898.80552     -963.60742     -17383.643     -27093.67      -45440.92       23.6         
     23800   296.75691     -26630.385      17747.248     -8883.1368      357.3985       324.05428      186.48263      561.65859      0.004748707   -0.010432197    0.0047602938   0.01117761    -0.010486993    0.0047489994   0.011115602    1.8459666     -8.9982433     -20.574758      2.6592973      18.430981     -11.172328      64.705932      62.320253      54.425408      2              219469.92      1.253765       9215.653       11795.948     -3199.879       890.37065     -888.00593     -17350.724     -27093.747     -45332.477      23.8         
     24000   298.29868     -26335.49       17839.452     -8496.038       95.985498      128.71034     -452.38086      611.62702      0.0047885167  -0.0086961086   0.0047945576   0.013676845   -0.0087341404   0.0047831003   0.013584161   -2.8925158     -8.6188508      21.362348     -3.2455022      8.7779917      10.912447      64.767962      62.284845      54.488851      2              219811.43      1.2518171      9181.5523      11951.499     -2988.1523      896.15489     -918.7286      -17363.453     -27094.362     -45376.544      24           
     24200   298.15368     -26483.696      17830.781     -8652.9156     -842.00743     -1018.7057     -590.59803     -916.71858      0.0048283249  -0.0063825786   0.0048397665   0.016064064   -0.0064030344   0.0048280925   0.015936402    24.306888      4.3085056      13.186586      8.5970749      15.9273        8.5630535      64.811755      62.309661      54.427759      2              219800.98      1.2518766      9099.4977      11887.895     -2973.8383      913.02797     -957.23685     -17359.144     -27093.897     -45410.278      24.2         
     24400   298.40675     -26731.449      17845.915     -8885.5343     -66.539772     -511.06215      409.04119     -97.598357      0.0048681314  -0.0047614941   0.0048892377   0.017784956   -0.0047728661   0.0048773242   0.017628654   -8.3219661     -8.8337285      13.599635      3.6985916      6.9322961      18.395708      64.739389      62.312552      54.320716      2              219133.93      1.2556874      9229.7615      11851.599     -3282.7763      906.31545     -996.12393     -17345.213     -27095.012     -45436.349      24.4         
     24600   299.70421     -26462.624      17923.508     -8539.1161      75.833339     -251.36945     -191.03513      669.90459      0.0049079364  -0.003557298    0.0049403836   0.017673515   -0.0035636403   0.0049282199   0.017519155   -10.416315     -4.7417529     -15.508226      9.1081824      8.0910528      8.4746704      64.716086      62.338105      54.199101      2              218654.25      1.2584421      9100.9252      11985.7       -3020.7828      900.6743      -989.9536      -17346.193     -27092.995     -45429.141      24.6         
     24800   293.31655     -26098.867      17541.501     -8557.3663      96.536138      527.58687      230.08639     -468.06485      0.0049477397  -0.0030847579   0.0049812776   0.016430746   -0.0030895256   0.0049689121   0.016297222   -9.8577472      1.6575726     -21.377216      3.4474499      7.4126481      10.93337       64.813905      62.361135      54.192321      2              219038.25      1.2562359      9293.532       12153.343     -2964.4985      903.17559     -1017.4403     -17373.807     -27093.171     -45484.419      24.8         
     25000   297.50566     -26619.252      17792.026     -8827.2258      946.24586      1559.8919      668.89595      609.94972      0.0049875415  -0.0031960305   0.00501709     0.012468382   -0.0032011487   0.0050045463   0.012391291    20.536036      12.724213     -2.8272542      7.7149745     -0.00082245777  20.449358      64.848623      62.361225      54.24251       2              219358.86      1.2543998      9221.779       11892.481     -3260.084       895.05823     -888.0898      -17386.589     -27093.808     -45368.486      25           
     25200   298.54507     -26432.571      17854.187     -8578.3835     -527.39403      17.753542     -1731.8807      131.94502      0.0050273417  -0.0041332494   0.0050504989   0.008394981   -0.0041418149   0.0050377879   0.0083599391   3.3536697     -7.960827       0.87057907     11.494124      7.6461454     -13.112076      64.842869      62.35245       54.31707       2              219609.98      1.2529654      9323.9338      12005.516     -3278.3292      913.60307     -946.71797     -17357.665     -27092.911     -45397.294      25.2         
     25400   297.35518     -26509.191      17783.027     -8726.1638     -599.59449     -1039.0526     -435.83163     -323.89925      0.0050671403  -0.0058878238   0.0050871731   0.0055005579  -0.0059052253   0.0050742772   0.0054854851  -2.58316       -14.524845      0.6164158     -0.48128659     11.765571     -9.5834031      64.803849      62.385313      54.354557      2              219745.06      1.2521952      9212.4698      11913.333     -3223.6376      890.74585     -860.40021     -17347.846     -27093.856     -45302.102      25.4         
     25600   299.16064     -26463.34       17891.001     -8572.3392     -1.5955213     -169.2491      -643.49946      807.96199      0.0051069374  -0.0072279611   0.0051211565   0.0034463318  -0.0072542093   0.005108088    0.0034404068   6.7372968      3.9753664     -0.9194849      5.1339726      2.3516098     -4.3119592      64.766481      62.429361      54.419511      2              220036.04      1.2505392      9255.8087      11879.831     -3086.4481      883.79184     -910.2312      -17392.618     -27093.474     -45396.324      25.6         
     25800   300.6181      -26459.005      17978.162     -8480.8425      8.1261804     -24.190053      466.56235     -417.99375      0.0051467328  -0.0089965054   0.0051530639   0.0011772989  -0.0090372184   0.0051398323   0.0011766064  -9.3815294      5.3020446     -5.0810798      3.4768727      2.2291096      8.0680632      64.701749      62.43096       54.505353      2              220168.5       1.2497869      9305.2486      11939.435     -3263.3322      871.28918     -862.1244      -17355.523     -27093.998     -45311.645      25.8         
     26000   293.5468      -26297.841      17555.271     -8742.5705     -249.40206      133.24423     -442.19207     -439.25832      0.0051865267  -0.010640745    0.0051859927   0.00030982767 -0.010697762    0.0051725918   0.00030977969  13.569099     -10.207342     -10.232986      0.27587657     15.115218     -12.171428      64.650725      62.457957      54.579138      2              220387.95      1.2485424      9191.3158      12064.637     -3100.2484      896.20678     -937.57983     -17319.434     -27092.738     -45349.752      26           
     26200   298.85614     -26431.13       17872.79      -8558.3401     -64.692733      221.81706      234.96713     -650.86239      0.005226319   -0.01228831     0.0052234898   0.00086369014 -0.012364436    0.0052098947   0.00086331738 -3.7088013      19.249207      22.292271      1.1033054      1.7674116     -14.686811      64.585356      62.452462      54.604137      2              220246.58      1.2493438      9384.8951      11907.918     -3289.7856      889.2329      -900.68805     -17330.469     -27092.234     -45323.391      26.2         
     26400   297.91109     -26622.12       17816.272     -8805.8482      683.71242      965.11791      1134.9497     -48.930316      0.0052661097  -0.012672584    0.0052767369   0.0021776443  -0.012753567    0.0052628637   0.0021752767  -1.0319631     -11.550292      16.244599     -4.9248806     -11.45032      -11.483852      64.535945      62.461881      54.465627      2              219552.93      1.253291       9310.5156      11924.174     -3416.3809      899.68645     -868.2564      -17378.058     -27093.801     -45340.116      26.4         
     26600   298.65267     -26409.683      17860.622     -8549.0605     -615.09595     -1099.1233     -252.14268     -494.02188      0.0053058988  -0.012538235    0.0053256604   0.0044081355  -0.012617502    0.0053115292   0.0043984481  -8.9037982     -1.4446084     -10.342398     -10.184542     -1.0318661     -7.9212063      64.579971      62.493705      54.373697      2              219443.63      1.2539152      9153.6636      12133.299     -3175.7135      877.86184     -963.30248     -17341.147     -27094.343     -45398.793      26.6         
     26800   299.39881     -26219.189      17905.244     -8313.9447     -311.13006     -835.12569      673.19623     -771.4607       0.0053456863  -0.012622861    0.0053666657   0.0071752264  -0.012703206    0.0053523164   0.0071496069  -7.2447048     -30.978503     -21.161764     -2.7240778      17.180647     -3.0375993      64.629697      62.608134      54.363053      2              219971.65      1.2509053      9207.9376      12069.504     -3000.8902      890.67587     -930.69463     -17362.209     -27093.513     -45386.416      26.8         
     27000   299.08098     -26468.424      17886.236     -8582.1874     -687.60756      240.52229     -1354.1931     -949.15185      0.0053854723  -0.012759862    0.0054062774   0.0091195499  -0.012841968    0.005391716    0.0090782179   6.9366091      24.338953      11.544626      6.9574394      12.093329      6.7638057      64.635229      62.7068        54.36658       2              220351.47      1.2487491      9230.6632      11972.687     -3093.289       872.49343     -989.13044     -17369.963     -27091.885     -45450.978      27           
     27200   295.57717     -26396.941      17676.695     -8720.2456     -316.34737     -731.76431     -700.51559      483.23779      0.0054252566  -0.011520648    0.0054498263   0.0096916245  -0.011587525    0.0054350298   0.009644962    14.544407      6.6807263      4.2164818     -19.370399      2.6916645      2.2912621      64.531145      62.662008      54.331341      2              219696.99      1.2524692      9223.8495      11988.518     -3178.3556      885.99208     -853.53016     -17369.264     -27094.15      -45316.944      27.2         
     27400   300.73544     -26274.908      17985.18      -8289.7284      658.35154      908.98485     -250.61138      1316.6811      0.0054650394  -0.0097546659   0.0054886208   0.010077924   -0.0098025543   0.0054736132   0.010027481    8.6685421      2.0779265     -13.133573     -5.1084035     -10.480291      9.3967933      64.419237      62.645062      54.343778      2              219306.88      1.2546971      9208.2094      12039.525     -2991.7416      882.03706     -976.4774      -17342.166     -27094.295     -45412.938      27.4         
     27600   299.71694     -26495.613      17924.269     -8571.3437      895.80889      631.59713      476.13502      1579.6945      0.0055048206  -0.0089140672   0.005524584    0.010462361   -0.0089540352   0.0055093794   0.010408009   -1.2108843     -2.2795861      2.9774887      18.139426      3.9788833     -9.0789763      64.319798      62.667681      54.383886      2              219209.07      1.2552569      9303.4988      11999.411     -3325.8328      917.41226     -934.54842     -17362.162     -27093.392     -45390.102      27.6         
[...]
    744000   296.46725     -26006.662      17729.925     -8276.737      -816.34109     -1403.3723      66.857063     -1112.508       0.13871792    -0.012642541    0.1472521     -0.0084737743  -0.012723138    0.1373696     -0.0085098808   9.9534215      5.6571207      0.65959718    -13.37436       77.081009      6.9162729      64.371227      62.4088        54.605441      2              219368.13      1.2543467      9218.2801      12070.291     -2874.5352      910.54978     -929.10703     -17309.388     -27092.753     -45331.248      744          
    744200   297.76011     -26149.994      17807.243     -8342.7514      777.03903      282.59018      1122.5672      925.9597       0.13875274    -0.01187745     0.14713227    -0.00915022    -0.01194855     0.13726515    -0.0091923404  -15.565995     -22.285777     -11.910403     -1.4386688      84.215456     -4.6404471      64.372146      62.37324       54.664943      2              219485.18      1.2536778      9217.3258      12054.88      -2961.7266      882.14877     -894.55243     -17355.847     -27092.222     -45342.622      744.2        
    744400   297.9219      -26315.114      17816.919     -8498.195       289.50288     -193.15365      677.25679      384.4055       0.13878755    -0.010892641    0.14697854    -0.0090467384  -0.0109524      0.13713113    -0.0090879086  -15.461139     -22.585271      8.2236211     -0.90746372     73.8386       -2.4520639      64.475163      62.487281      54.737642      2              220531.26      1.2477311      9183.5438      11969.367     -2992.1038      911.49443     -973.82098     -17321.124     -27092.47      -45387.415      744.4        
    744600   299.59382     -26120.619      17916.907     -8203.7127      395.50737      195.13091      767.56171      223.82951      0.13882237    -0.0096411611   0.14716696    -0.0082238277  -0.009687938    0.13729539    -0.0082578299   16.325092      22.751412      31.647207     -10.066671      88.906686     -16.00771       64.536463      62.573257      54.681485      2              220817.87      1.2461116      9337.6509      11939.017     -2990.5449      916.60523     -899.66932     -17331.681     -27091.998     -45323.348      744.6        
    744800   301.27439     -26261.907      18017.411     -8244.4954      225.1609       449.62079      326.0543      -100.1924       0.13885719    -0.0076218041   0.14743907    -0.0066181613  -0.0076509985   0.13753256    -0.0066401584  -10.129609     -2.8276191     -21.593628     -1.2519237      75.352849      11.637482      64.56155       62.590235      54.594202      2              220610.94      1.2472804      9331.6921      11915.434     -3054.7011      912.36603     -918.0446      -17355.118     -27093.535     -45366.698      744.8        
    745000   295.83053     -26245.025      17691.847     -8553.1784      732.5779       307.63426      693.32787      1196.7716      0.138892      -0.0052081345   0.14761823    -0.0061310522  -0.0052217441   0.13768869    -0.0061499243   0.84820486    -0.17962224    -2.8915223     -9.0734076      81.245758      10.828442      64.626816      62.583406      54.541654      2              220597.33      1.2473573      9347.5741      11902.177     -3084.0374      930.04271     -882.44983     -17365.149     -27093.183     -45340.782      745          
    745200   295.33353     -25963.14       17662.124     -8301.0156     -507.8067      -352.7034      -771.63374     -399.08297      0.13892681    -0.003400334    0.14769015    -0.0063758748  -0.0034061283   0.13775136    -0.0063962875   14.026851     -0.58449836    -3.5889839      6.5325216      75.414203      0.53622463     64.672096      62.57533       54.52918       2              220672.92      1.2469301      9235.0795      11967.068     -2832.0782      937.27145     -855.52488     -17321.386     -27093.57      -45270.48       745.2        
    745400   298.46554     -26148.82       17849.431     -8299.3892      541.28816      190.64978      652.00909      781.20562      0.13896162    -0.002312773    0.1477273     -0.0069094667  -0.0023154516   0.13778373    -0.0069334476   5.1378138      13.119547      4.4079483      6.9084243      77.162675     -3.2883702      64.595125      62.589567      54.529655      2              220462.35      1.248121       9327.3832      12054.653     -3085.2719      908.97508     -926.50091     -17334.71      -27093.349     -45354.56       745.4        
    745600   296.13214     -26034.349      17709.884     -8324.4652     -284.6076      -97.838266     -272.63763     -483.34691      0.13899643    -0.00070984733  0.14764153    -0.0071141029  -0.00071009939  0.13770899    -0.0071395288  -7.4998965     -21.230122     -23.377047     -1.8249167      84.235065     -4.3356939      64.494748      62.542453      54.576274      2              220142.12      1.2499366      9158.2536      12083.667     -2894.5937      905.65799     -877.04761     -17317.806     -27092.481     -45287.334      745.6        
    745800   297.85622     -26168.952      17812.991     -8355.9612     -752.29089     -930.44976     -930.17742     -396.24548      0.13903124     0.00099971014  0.1472766     -0.0076980602   0.00099921076  0.13739096    -0.0077278432  -10.341311      15.405204     -4.9949826      12.272545      85.339017      9.5240574      64.398168      62.584951      54.727816      2              220572.59      1.2474973      9115.6021      12079.934     -2891.5834      889.26485     -947.23143     -17321.216     -27093.722     -45362.17       745.8        
    746000   296.98485     -26259.555      17760.88      -8498.6756      528.32681      568.25658     -158.7579       1175.4817      0.13906605     0.0018170756   0.14695857    -0.0089885509   0.0018154267   0.13711371    -0.0090291916   5.3862859      2.0668934      17.232717      5.6198679      85.361922      3.862386       64.38629       62.581615      54.862014      2              221060.89      1.2447417      9367.3201      11999.933     -3228.8604      885.08553     -824.43916     -17365.319     -27093.275     -45283.033      746          
    746200   296.27493     -26234.918      17718.424     -8516.4946      7.0983512     -206.09578      57.628561      169.76227      0.13910085     0.0014038103   0.14674189    -0.010663037    0.0014028259   0.13692479    -0.010720295   -5.2960125      5.5849891      14.509395      20.270116      84.014708     -11.763399      64.384142      62.47005       54.958017      2              221045.57      1.2448279      9147.9405      12023.888     -2976.887       886.89733     -904.88889     -17319.845     -27092.023     -45316.757      746.2        
    746400   299.32386     -26072.813      17900.762     -8172.0512     -55.413441      339.90923     -450.78856     -55.360996      0.13913566    -0.00058428025  0.14665671    -0.011151553   -0.00058445101  0.1368505     -0.011214197    2.2393794      1.4056548      19.17768       1.7751533      73.589699     -17.840703      64.375661      62.31939       55.005018      2              220671.99      1.2469354      9242.042       12046.959     -2957.4703      898.69591     -878.85155     -17331.118     -27093.071     -45303.04       746.4        
    746600   299.26845     -26229.059      17897.448     -8331.6109      131.49853     -5.9641634     -200.36443      600.82417      0.13917046    -0.0035359677   0.14663537    -0.010169302   -0.003542234    0.13683189    -0.010221362   -5.503966      -15.723326     -11.408734      0.1664501      85.537912     -4.7064133      64.370362      62.160684      55.028704      2              220186.67      1.2496838      9160.3394      12027.929     -2999.6553      908.19475     -914.83702     -17318.247     -27092.782     -45325.866      746.6        
    746800   300.07048     -26149.369      17945.412     -8203.9566     -995.38379     -295.44835     -1264.2153     -1426.4878      0.13920527    -0.00634826     0.14657621    -0.0098197309  -0.0063684959   0.13678029    -0.0098682624  -20.481451     -26.654612      15.533119     -7.9533734      85.978968      0.16837433     64.496236      62.120649      55.066379      2              220626.1       1.2471947      9036.246       12084.238     -2765.2338      889.75286     -971.67398     -17330.516     -27092.182     -45394.372      746.8        
    747000   296.9823      -26134.863      17760.727     -8374.1356     -343.92423     -909.00089     -89.717717     -33.054097      0.13924007    -0.0091342849   0.14677791    -0.0086182333  -0.0091762583   0.1369562     -0.008655585    7.6500752      3.1883776      25.241684     -3.9226248      77.217996     -10.226886      64.643362      62.160628      55.005069      2              221025.33      1.244942       9241.4131      11937.997     -2888.7612      925.89679     -920.696       -17337.614     -27093.099     -45351.409      747          
    747200   298.0742      -26293.161      17826.027     -8467.1343     -81.399764     -399.43099     -1283.429       1438.6606      0.13927487    -0.011651402    0.14722984    -0.0075253837  -0.011719811    0.1373502     -0.0075538422   10.880906     -1.9863789      9.0174514     -4.7591283      66.956796      5.8305763      64.714887      62.25035       54.848995      2              220960.51      1.2453071      9132.799       12011.107     -2997.4254      887.99348     -921.90222     -17313.062     -27092.672     -45327.636      747.2        
    747400   298.23402     -26117.255      17835.585     -8281.6697     -222.73196      134.68572     -157.29054     -645.59106      0.13930967    -0.012474898    0.14770889    -0.006741648   -0.012553362    0.13776769    -0.0067644756   9.0403357      4.2462968      5.6750385     -4.4198522      90.273346      4.3208882      64.689733      62.264863      54.683412      2              220259.17      1.2492724      9109.3172      12008.952     -2850.0453      883.4937      -858.79614     -17317.775     -27092.4       -45268.972      747.4        
    747600   297.12609     -25932.492      17769.326     -8163.1658     -657.45129     -753.31465     -785.17685     -433.86236      0.13934446    -0.012436488    0.14798065    -0.0065005398  -0.012514468    0.13800445    -0.0065217603  -15.081107     -13.154904     -7.7483567     -10.825672      93.974571      1.787533       64.702186      62.303382      54.596181      2              220086.22      1.2502541      9137.5661      12162.454     -2785.2783      923.12572     -949.4435      -17327.068     -27093.848     -45370.36       747.6        
    747800   295.80503     -26083.818      17690.322     -8393.496       101.36456      413.24987     -383.96699      274.8108       0.13937926    -0.012744195    0.1481735     -0.0067480529  -0.012826099    0.13817242    -0.0067709239   4.17009       -3.8289492     -2.3119266      6.5381782      82.047986      4.0250737      64.715517      62.33358       54.538608      2              220006.01      1.2507099      9176.6883      11979.975     -2782.3491      911.95447     -924.39544     -17352.108     -27093.583     -45370.086      747.8        
    748000   300.08135     -26251.212      17946.063     -8305.1491     -693.33878     -921.35504     -779.71973     -378.94157      0.13941406    -0.012299337    0.1482829     -0.0073330306  -0.012375599    0.1382677     -0.0073600494   17.657047      3.6543126     -1.9816567     -8.9586143      78.66588       0.81802629     64.698255      62.414654      54.512163      2              220126.61      1.2500247      9032.0315      12054.839     -2812.0883      907.18333     -1006.3469     -17333.341     -27093.49      -45433.178      748          
    748200   298.03221     -26272.561      17823.516     -8449.045      -117.29316      40.272077     -636.50411      244.35256      0.13944885    -0.010702634    0.14840677    -0.0062829232  -0.010760319    0.13837556    -0.0063027438  -4.9907549     -11.689932     -19.616782     -5.2182554      88.371161     -14.191088      64.625448      62.493803      54.480787      2              220031.01      1.2505678      9171.8091      12026.28      -3079.1412      917.93585     -885.29677     -17330.837     -27093.312     -45309.445      748.2        
    748400   295.0535      -26088.44       17645.377     -8443.0626     -529.93382     -395.57232     -602.49797     -591.73116      0.13948364    -0.0090339599   0.14848015    -0.0042038737  -0.0090750136   0.13843946    -0.0042127348  -16.848799      16.197379      16.84778      -2.5352101      93.459337     -5.3290815      64.631966      62.575526      54.468404      2              220290.88      1.2490926      9214.2484      11937.92      -2796.6524      908.33784     -902.16241     -17356.975     -27093.156     -45352.293      748.4        
    748600   295.26095     -26248.322      17657.783     -8590.5382      9.9881626     -461.47728      147.63701      343.80475      0.13951843    -0.0072388027   0.14867144    -0.0021471466  -0.00726513     0.138606      -0.002149455   -11.45469       2.1379443      4.1588909     -5.4066702      65.502375      4.0355599      64.703618      62.607752      54.412014      2              220420.25      1.2483595      9243.8256      11853.817     -2884.5002      910.17191     -913.01918     -17365.149     -27093.468     -45371.636      748.6        
    748800   298.27812     -26022.751      17838.222     -8184.5284     -190.50097     -369.44554     -854.22032      652.16295      0.13955322    -0.0052476928   0.14882705    -0.0007074212  -0.0052615103   0.13874147    -0.00070767154  25.851442      2.5091919     -13.843984      6.2873939      91.880976      6.6523378      64.74253       62.642238      54.368826      2              220499.13      1.2479129      9277.8602      12080.474     -2987.4122      905.8536      -849.14876     -17356.416     -27093.962     -45299.527      748.8        
    749000   297.1762      -26120.139      17772.323     -8347.8165     -556.40055     -1228.95       -615.31343      175.06177      0.13958801    -0.0037078646   0.14885921     0.00057572768 -0.0037147558   0.13876946     0.00057556202 -1.0512133      5.5161622     -3.5771899      7.3445183      82.687464     -4.3825969      64.60702       62.587121      54.371388      2              219854.37      1.2515726      9141.835       11988.422     -2770.8501      909.15208     -964.6735      -17331.879     -27092.147     -45388.699      749          
    749200   297.84551     -26273.465      17812.351     -8461.1145      590.45308      759.6683       774.64175      237.04919      0.1396228     -0.002763821    0.14882636     0.0013330142  -0.0027676474   0.13874086     0.0013321265   0.71468299    -1.0813034     -1.8636312      6.3896085      73.182181      16.011311      64.463827      62.558523      54.398043      2              219374.35      1.2543112      9289.5922      11967.788     -3067.6585      916.2743      -924.93059     -17359.974     -27094.557     -45379.461      749.2        
    749400   296.44946     -26341.563      17728.861     -8612.7022      769.65386      1288.5628      319.77621      700.62259      0.13965759    -0.0026407541   0.14866159     0.0012090634  -0.002644247    0.13859743     0.0012083331  -14.706683      0.048875969   -13.677668      6.3679324      83.265485      3.9013995      64.421675      62.582691      54.473783      2              219620.96      1.2529027      9234.604       11914.127     -3045.1516      903.19021     -907.13603     -17346.356     -27094.842     -45348.333      749.4        
    749600   295.5045      -26069.802      17672.349     -8397.453      -1147.3959     -2202.1322     -397.25558     -842.8          0.13969237    -0.0033462751   0.14836166     4.931147e-06  -0.0033518864   0.13833629     4.9311348e-06  4.5140958     -3.5137814      8.1450671      8.0503537      73.707409      6.4616655      64.420944      62.582507      54.600178      2              220127.4       1.2500202      9233.1362      11925.926     -2716.6584      905.04697     -980.81531     -17343.384     -27093.054     -45417.253      749.6        
    749800   299.3212      -26167.711      17900.602     -8267.1088     -28.379021      148.91722      331.3581      -565.41239      0.13972716    -0.0051881743   0.14819965    -0.0011743334  -0.0052016796   0.13819519    -0.0011750235  -8.4342597      4.7326594      5.7864302      9.746272       72.067938     -11.777223      64.420241      62.521853      54.67534       2              220214.38      1.2495265      9297.0247      11923.74      -2962.2677      901.14394     -865.84105     -17368.445     -27093.067     -45327.353      749.8        
    750000   297.18417     -26317.195      17772.8       -8544.3958     -99.351021     -345.43716     -55.649152      103.03325      0.13976194    -0.0072482815   0.14807778    -0.0028647547  -0.0072746779   0.13808905    -0.0028688659  -28.473645     -3.2147517      3.837383       0.099670264    70.92398       16.67187       64.523419      62.484577      54.735514      2              220678.18      1.2469004      9239.3105      12034.669     -3259.7287      921.4398      -851.96686     -17308.553     -27092.366     -45252.886      750          
Loop time of 14361.1 on 16 procs for 750000 steps with 20064 atoms

Performance: 4.512 ns/day, 5.319 hours/ns, 52.224 timesteps/s, 1.048 Matom-step/s
98.9% CPU use with 16 MPI tasks x no OpenMP threads

MPI task timing breakdown:
Section |  min time  |  avg time  |  max time  |%varavg| %total
---------------------------------------------------------------
Pair    | 7325.6     | 7744.6     | 8105.1     | 190.6 | 53.93
Bond    | 2312.1     | 2397.4     | 2485.7     |  95.3 | 16.69
Kspace  | 1129       | 1588.6     | 2099.2     | 539.5 | 11.06
Neigh   | 1807       | 1807.9     | 1808.7     |   1.5 | 12.59
Comm    | 250.49     | 259.68     | 271.74     |  47.2 |  1.81
Output  | 88.355     | 88.358     | 88.366     |   0.0 |  0.62
Modify  | 412.01     | 434.69     | 444.56     |  58.7 |  3.03
Other   |            | 39.88      |            |       |  0.28

Nlocal:           1254 ave        1285 max        1212 min
Histogram: 2 0 0 3 1 0 4 3 1 2
Nghost:        11947.2 ave       12011 max       11859 min
Histogram: 1 1 1 0 4 0 2 3 2 2
Neighs:         654976 ave      679952 max      621710 min
Histogram: 2 0 1 1 2 2 2 3 1 2

Total # of neighbors = 10479619
Ave neighs/atom = 522.30956
Ave special neighs/atom = 5.8041268
Neighbor list builds = 29571
Dangerous builds = 0

#-------------------Wrap up-------------------
write_restart   ${myid}.restart
write_restart   shear_2_AroCy_L10_pxld_97_replicate_1_FF_PCFF-class2xe.restart
System init for write_restart ...
PPPM initialization ...
  using 12-bit tables for long-range coulomb (../kspace.cpp:342)
  G vector (1/distance) = 0.18906769
  grid = 18 18 18
  stencil order = 5
  estimated absolute RMS force accuracy = 0.018643434
  estimated relative force accuracy = 5.6144149e-05
  using double precision KISS FFT
  3d grid and FFT values/proc = 1960 648
Generated 45 of 45 mixed pair_coeff terms from sixthpower/sixthpower mixing rule
write_data      ${myid}.data
write_data      shear_2_AroCy_L10_pxld_97_replicate_1_FF_PCFF-class2xe.data
System init for write_data ...
PPPM initialization ...
  using 12-bit tables for long-range coulomb (../kspace.cpp:342)
  G vector (1/distance) = 0.18906769
  grid = 18 18 18
  stencil order = 5
  estimated absolute RMS force accuracy = 0.018643434
  estimated relative force accuracy = 5.6144149e-05
  using double precision KISS FFT
  3d grid and FFT values/proc = 1960 648
Generated 45 of 45 mixed pair_coeff terms from sixthpower/sixthpower mixing rule
Total wall time: 3:59:21
