thermo_style   custom step temp pe ke etotal press pxx pyy pzz v_etrue v_eengx v_eengy v_eengz v_etruex v_etruey v_etruez                f_sxx_ave f_syy_ave f_szz_ave f_sxy_ave f_sxz_ave f_syz_ave lx ly lz v_dir vol density ebond eangle edihed                eimp evdwl ecoul elong epair v_Time

restart        ${nsteps} rst1.a.${myid} rst2.a.${myid}
restart        200 rst1.a.${myid} rst2.a.${myid}
restart        200 rst1.a.tensile_1_AroCy_L10_pxld_97_replicate_1_FF_PCFF-class2xe rst2.a.${myid}
restart        200 rst1.a.tensile_1_AroCy_L10_pxld_97_replicate_1_FF_PCFF-class2xe rst2.a.tensile_1_AroCy_L10_pxld_97_replicate_1_FF_PCFF-class2xe
dump           6 all atom 10000 dump.${myid} #every picosecond
dump           6 all atom 10000 dump.tensile_1_AroCy_L10_pxld_97_replicate_1_FF_PCFF-class2xe 
dump_modify    6 scale no sort id

#-------------------Run-------------------
run            ${steps}
run            750000

CITE-CITE-CITE-CITE-CITE-CITE-CITE-CITE-CITE-CITE-CITE-CITE-CITE

Your simulation uses code contributions which should be cited:

- Type Label Framework: https://doi.org/10.1021/acs.jpcb.3c08419

@Article{Gissinger24,
 author = {Jacob R. Gissinger, Ilia Nikiforov, Yaser Afshar, Brendon Waters, Moon-ki Choi, Daniel S. Karls, Alexander Stukowski, Wonpil Im, Hendrik Heinz, Axel Kohlmeyer, and Ellad B. Tadmor},
 title = {Type Label Framework for Bonded Force Fields in LAMMPS},
 journal = {J. Phys. Chem. B},
 year =    2024,
 volume =  128,
 number =  13,
 pages =   {3282–-3297}
}

CITE-CITE-CITE-CITE-CITE-CITE-CITE-CITE-CITE-CITE-CITE-CITE-CITE

PPPM initialization ...
  using 12-bit tables for long-range coulomb (../kspace.cpp:342)
  G vector (1/distance) = 0.1811641
  grid = 16 16 15
  stencil order = 5
  estimated absolute RMS force accuracy = 0.028424569
  estimated relative force accuracy = 8.5599745e-05
  using double precision KISS FFT
  3d grid and FFT values/proc = 1521 256
Generated 45 of 45 mixed pair_coeff terms from sixthpower/sixthpower mixing rule
Neighbor list info ...
  update: every = 1 steps, delay = 0 steps, check = yes
  max neighbors/atom: 5000, page size: 100000
  master list distance cutoff = 14
  ghost atom cutoff = 14
  binsize = 7, bins = 10 9 8
  1 neighbor lists, perpetual/occasional/extra = 1 0 0
  (1) pair lj/class2/coul/long, perpetual
      attributes: half, newton on
      pair build: half/bin/newton
      stencil: half/bin/3d
      bin: standard
WARNING: Inconsistent image flags (../domain.cpp:1051)
Per MPI rank memory allocation (min/avg/max) = 20.25 | 20.42 | 20.64 Mbytes
   Step          Temp          PotEng         KinEng         TotEng         Press           Pxx            Pyy            Pzz          v_etrue        v_eengx        v_eengy        v_eengz        v_etruex       v_etruey       v_etruez      f_sxx_ave      f_syy_ave      f_szz_ave      f_sxy_ave      f_sxz_ave      f_syz_ave          Lx             Ly             Lz           v_dir          Volume        Density         E_bond        E_angle        E_dihed        E_impro         E_vdwl         E_coul         E_long         E_pair         v_Time    
         0   298           -26292.619      17821.59      -8471.029      -79.011277      255.17916      1532.9737     -2025.1867      0             -6.6056086e-16 -1.1381419e-16  3.895747e-16  -6.6613381e-16 -1.110223e-16   4.4408921e-16  0              0              0              0              0              0              64.539949      62.430065      54.716803      1              220466.76      1.2480961      9212.8267      11927.769     -2965.0037      900.38564     -905.31771     -17785.707     -26677.572     -45368.597      0            
       200   298.79885     -26474.893      17869.364     -8605.5287      383.84138      100.70052      1068.2542     -17.43055       3.99992e-05    4e-05         -0.00042659966 -0.00075275888  3.99992e-05   -0.00042669068 -0.00075304234 -16.632746     -7.5764324      7.9373026      0.59836813    -3.393076       4.6960988      64.542531      62.403433      54.675615      1              220215.63      1.2495194      9266.3063      11909.191     -3162.7532      875.04809     -916.07101     -17769.022     -26677.593     -45362.685      0.2          
       400   298.37831     -26257.24       17844.214     -8413.0258     -300.08687     -549.63612     -829.24013      478.61565      7.99968e-05    8e-05         -0.00032543941 -0.0024462978   7.99968e-05   -0.00032549238 -0.0024492948  -3.597756       6.350013      -3.0554664      0.12090121     5.2503854     -10.136942      64.545112      62.409748      54.58295       1              219873.45      1.251464       9296.2761      12018.049     -3165.1763      891.64006     -855.49098     -17764.429     -26678.109     -45298.029      0.4          
       600   299.07904     -26303.358      17886.121     -8417.237      -202.96073     -245.39642     -756.67611      393.19033      0.0001199928   0.00012        0.00063296967 -0.0033425364   0.0001199928   0.00063276943 -0.0033481351  -4.3217338     -8.0835755      1.3531475      4.1130811     -0.053058368    2.1020754      64.547694      62.469582      54.53391       1              219895.31      1.2513396      9418.2543      12000.43      -3231.5         869.58059     -914.63191     -17767.857     -26677.634     -45360.123      0.6          
       800   296.55538     -26404.07       17735.196     -8668.874       63.670879     -223.74154      655.42765     -240.67348      0.0001599872   0.00016        0.0015061791  -0.0044919795   0.0001599872   0.0015050459  -0.0045020988  -10.184342      0.85469356     0.28526942     14.572063      0.19689329    -18.315035      64.550275      62.524096      54.471017      1              219842.17      1.251642       9352.1867      11930.299     -3218.6377      859.22945     -891.51537     -17758.978     -26676.654     -45327.147      0.8          
      1000   299.12791     -26245.406      17889.043     -8356.3632      618.54254      1098.8093      61.210603      695.6077       0.00019998     0.0002         0.0030380176  -0.0045191494   0.00019998     0.0030334121  -0.0045293917  -12.959462     -7.4378493     -15.391565      14.861785      4.7367982     -9.7075639      64.552857      62.619729      54.46953       1              220181.22      1.2497147      9399.0902      11856.128     -3095.4571      884.6441      -850.56094     -17761.793     -26677.457     -45289.811      1            
      1200   304.14705     -26083.297      18189.208     -7894.089      -143.52914     -67.834615     -498.87964      136.12684      0.0002399712   0.00024        0.0049906221  -0.0039678479   0.0002399712   0.0049782102  -0.0039757407   24.297951      2.7647237      9.6161042      10.216667      10.143899      6.0128159      64.555439      62.74163       54.499695      1              220740.85      1.2465464      9276.8813      11929.172     -2937.5859      887.47004     -800.61897     -17761.448     -26677.167     -45239.234      1.2          
      1400   297.59405     -26147.31       17797.312     -8349.9981     -253.29467     -284.5713       707.68049     -1182.9932      0.00027996081  0.00028        0.0061348005  -0.0037236121   0.00027996081  0.0061160592  -0.003730562    18.42593       22.158283     -4.9555069      5.0287924      2.7978683      6.4807242      64.55802       62.813061      54.513059      1              221055.19      1.2447738      9389.3219      12027.179     -3120.0695      902.39865     -921.03561     -17748.504     -26676.6       -45346.14       1.4          
      1600   300.34354     -26523.776      17961.743     -8562.0338     -243.16139      110.1692      -475.41918     -364.23418      0.00031994881  0.00032        0.0057237475  -0.0043835632   0.00031994881  0.0057074291  -0.0043931992   10.792721     -2.9572179      3.9925531      3.0006696      1.1722996      20.630061      64.560602      62.787399      54.476949      1              220827.34      1.2460581      9319.4633      11869.907     -3326.3711      879.30708     -826.14633     -17762.714     -26677.222     -45266.082      1.6          
      1800   297.64594     -26340.851      17800.416     -8540.4357     -342.17845     -320.23233     -431.47769     -274.82532      0.00035993522  0.00036        0.0056342745  -0.0054231159   0.00035993522  0.0056184614  -0.0054378744   19.274799      6.6993397      10.030399     -4.5030404      16.456465     -5.9182288      64.563183      62.781813      54.420068      1              220585.96      1.2474216      9164.5792      11921.504     -2939.8134      902.54101     -932.64284     -17778.436     -26678.583     -45389.662      1.8          
      2000   295.79128     -26361.966      17689.499     -8672.4665      229.32655     -116.80668      173.17373      631.61261      0.00039992002  0.0004         0.0044266287  -0.0072727367   0.00039992002  0.00441686    -0.0072993119   9.7134703      5.7601284     -8.8249848      0.09320528     4.6894924      10.350452      64.565765      62.70642       54.318862      1              219920.13      1.2511984      9341.5013      11853.296     -3086.8278      887.06885     -910.46836     -17768.646     -26677.89      -45357.004      2            
      2200   299.01641     -26370.424      17882.375     -8488.0486      1007.6799      471.25981      986.8508       1564.929       0.00043990323  0.00044        0.0025267975  -0.0086003633   0.00043990323  0.0025236106  -0.0086375598   13.587882     -4.2316799     -18.29968       23.43741       14.553464      8.9012696      64.568347      62.587813      54.246219      1              219219.37      1.255198       9548.6005      11901.918     -3324.7365      868.54917     -906.80339     -17780.456     -26677.495     -45364.755      2.2          
      2400   298.42467     -26419.837      17846.986     -8572.8503     -379.58031     -808.34557     -954.65673      624.26139      0.00047988484  0.00048        0.0018989296  -0.0077738844   0.00047988484  0.0018971289  -0.0078042585  -6.9973901     -5.6841462     -17.959054      2.3077527      1.0709263      1.5920287      64.570928      62.548616      54.291441      1              219273.48      1.2548882      9299.3913      11819.249     -2978.4875      883.98717     -992.71616     -17773.769     -26677.492     -45443.977      2.4          
      2600   299.56921     -26514.38       17915.435     -8598.9456      299.79393     -18.427717      554.98786      362.82165      0.00051986485  0.00052        0.00042590717 -0.006645184    0.00051986485  0.0004258165  -0.0066673616  -0.23552561     6.4118823     -0.23947301     6.643186      -15.020337     -12.2563        64.57351       62.456655      54.3532        1              219208.92      1.2552578      9298.6418      11922.899     -3172.2127      899.89153     -1015.6797     -17768.703     -26679.217     -45463.6        2.6          
      2800   302.27976     -26409.242      18077.536     -8331.7055      419.19058     -261.41514      730.64157      788.34529      0.00055984326  0.00056       -0.00085095187 -0.0055685306   0.00055984326 -0.00085131413 -0.0055840926   4.1243184     -33.250201     -2.774019       23.997131     -10.408469      9.3901045      64.576091      62.37694       54.412111      1              219175.19      1.2554509      9340.931       12027.718     -3248.9361      898.6306      -967.51529     -17782.108     -26677.962     -45427.585      2.8          
      3000   299.02108     -26298.177      17882.654     -8415.5223     -1045.9939     -956.73309     -1215.4018     -965.84675      0.00059982007  0.0006         0.00062228573 -0.003928486    0.00059982007  0.00062209219 -0.0039362227  -9.7722483     -3.8015998      13.197187      16.713284     -1.1569843      0.22888327     64.578673      62.468915      54.501849      1              219869.16      1.2514884      9211.9005      11939.699     -2892.2611      891.07634     -991.0026      -17780.217     -26677.371     -45448.591      3            
      3200   297.39492     -26383.02       17785.403     -8597.6165     -10.359209      184.55144      14.702134     -230.3312       0.00063979529  0.00064        0.0016852613  -0.0033083151   0.00063979529  0.0016838428  -0.0033137997   20.516681      11.002616      21.956142      3.0944718     -4.9949441     -14.987423      64.581255      62.535276      54.535783      1              220248.57      1.2493325      9278.2241      11899.599     -3099.5269      875.94437     -845.63542     -17814.918     -26676.707     -45337.261      3.2          
      3400   299.70137     -26214.122      17923.339     -8290.783       591.45488      198.33676      318.13744      1257.8904      0.0006797689   0.00068        0.0017176414  -0.0050402851   0.0006797689   0.0017161679  -0.0050530302   26.697362      6.9281803      14.69085       8.4537079      0.87729314     0.32478086     64.583836      62.537298      54.441015      1              219881.74      1.2514168      9408.2682      12042.166     -3221.1544      886.66324     -872.7524      -17779.726     -26677.587     -45330.065      3.4          
      3600   297.6224      -26158.087      17799.008     -8359.079       133.17872     -145.45682     -861.96895      1406.9619      0.00071974092  0.00072        0.0024700021  -0.0066116742   0.00071974092  0.0024669567  -0.0066336281   8.8245833     -10.383648     -25.297313      19.496936      4.1123403     -2.3977053      64.586418      62.584268      54.355034      1              219708.14      1.2524056      9434.9082      11967.86      -3129.1016      884.50211     -861.55357     -17777.812     -26676.889     -45316.255      3.6          
      3800   296.78707     -26287.959      17749.051     -8538.9077     -267.36945      119.259       -1044.9847      123.61739      0.00075971135  0.00076        0.004401243   -0.0072319925   0.00075971135  0.0043915859  -0.0072582701   8.9061067     -12.221374      0.58624904     3.9006389      8.8836186     -12.19718       64.588999      62.704835      54.321092      1              220002.73      1.2507286      9356.7857      11942.566     -3084.3595      862.45825     -918.97036     -17769.361     -26677.078     -45365.41       3.8          
      4000   296.01929     -26353.308      17703.136     -8650.1722      185.18335      602.72535      296.51678     -343.69208      0.00079968017  0.0008         0.0056335987  -0.0090187009   0.00079968017  0.0056177893  -0.0090596155   13.415313      26.882528      11.676828      14.590952      4.7378954     -5.8047903      64.591581      62.781771      54.223329      1              219885.03      1.2513981      9247.938       11926.137     -3091.1625      874.19102     -862.68031     -17770.253     -26677.478     -45310.411      4            
      4200   297.8971      -26644.535      17815.436     -8829.0997     -6.7749872      178.52638     -653.62194      454.7706       0.0008396474   0.00084        0.0052242873  -0.010240682    0.0008396474   0.005210688   -0.010293478   -0.90275888    -2.2976896     -6.6047925      5.2106563     -3.4641599     -2.7593426      64.594163      62.756218      54.156466      1              219533.27      1.2534032      9291.2165      11871.669     -3276.2934      871.25048     -957.81958     -17766.389     -26678.169     -45402.378      4.2          
      4400   301.24548     -26338.336      18015.683     -8322.6534      512.71112      90.872693      213.53403      1233.7266      0.00087961303  0.00088        0.0047982836  -0.01106981     0.00087961303  0.0047868085  -0.011131536    4.4250186      2.6234211     -18.880262     -2.7635568      12.221329     -2.5270102      64.596744      62.729622      54.111099      1              219265.17      1.2549358      9266.6616      11949.341     -3067.7685      903.23927     -902.76715     -17809.227     -26677.815     -45389.809      4.4          
      4600   298.37467     -26250.295      17843.996     -8406.2987     -100.90638     -857.20008      428.19314      126.28779      0.00091957706  0.00092        0.004248641   -0.0095484019   0.00091957706  0.0042396411  -0.0095942802   16.082235     -3.8937217     -13.049335      1.8865585      5.61321       -9.3610688      64.599326      62.695308      54.194345      1              219491.14      1.2536438      9294.884       11943.887     -2961.5349      878.82036     -922.22715     -17807.307     -26676.817     -45406.351      4.6          
      4800   297.07669     -26362.117      17766.372     -8595.7447     -450.48195     -641.00989     -352.09166     -358.3443       0.00095953949  0.00096        0.0043343698  -0.0065209533   0.00095953949  0.0043250035  -0.0065423076   3.2836093      1.99705        2.8379998     -2.9455198      7.1886915     -8.2218109      64.601907      62.70066       54.359998      1              220189.64      1.2496669      9236.191       12104.379     -3269.2691      896.70049     -890.36695     -17762.348     -26677.403     -45330.118      4.8          
      5000   297.93637     -26384.976      17817.784     -8567.1922     -410.69668     -541.56905     -482.34683     -208.17415      0.00099950033  0.001          0.0038498743  -0.0045786355   0.00099950033  0.0038424825  -0.0045891495   5.5865059      15.807887      7.8833641      18.41669       0.36214875     9.7139987      64.604489      62.670413      54.466275      1              220522.51      1.2477806      9240.5822      12109.209     -3265.0572      887.5916      -927.83065     -17752.547     -26676.924     -45357.302      5            
      5200   300.80063     -26101.8        17989.079     -8112.7209     -177.47872     -40.21002       509.73752     -1001.9637      0.0010394596   0.00104        0.0010182395  -0.0040250216   0.0010394596   0.0010177215  -0.0040331438  -4.7071156     -4.557018       15.290161      14.828968      0.98664992     9.7266189      64.607071      62.493634      54.496567      1              220031.56      1.2505647      9358.1819      12004.758     -2982.2941      907.92989     -942.60759     -17770.265     -26677.503     -45390.375      5.2          
      5400   297.55126     -26358.439      17794.753     -8563.6857      1021.7207      1703.4767      1152.5837      209.10175      0.0010794172   0.00108        0.00011303886 -0.0045672106   0.0010794172   0.00011303247 -0.0045776721   5.785992      -14.510837     -9.2337063     -3.9976488      6.2966128      1.9063186      64.609652      62.437122      54.4669        1              219721.69      1.2523283      9417.3382      11944.944     -3224.3389      918.91372     -939.97808     -17797.187     -26678.132     -45415.296      5.4          
      5600   298.86154     -26484.925      17873.113     -8611.8121      36.826098     -681.18793      984.50881     -192.84259      0.0011193733   0.00112        0.00023277127 -0.0044388343   0.0011193733   0.00023274418 -0.0044487152  -13.698981      0.52672914    -6.4591606      21.892676      2.4745594      22.049267      64.612234      62.444597      54.473924      1              219785.12      1.2519669      9256.0061      11938.692     -3203.4926      888.51785     -918.79367     -17769.479     -26676.376     -45364.649      5.6          
      5800   294.90568     -26024.445      17636.537     -8387.9076     -532.84461     -1472.2823     -922.3575       796.10594      0.0011593277   0.00116        0.00055469753 -0.0035223211   0.0011593277   0.00055454374 -0.0035285391   14.411639      1.5844183      2.432714       12.329122     -1.5821316      1.5976175      64.614815      62.464695      54.524073      1              220067.05      1.250363       9299.3632      11996.425     -2788.4161      903.14618     -1014.7342     -17743.624     -26676.606     -45434.963      5.8          
      6000   298.68374     -26290.159      17862.48      -8427.6787      808.74999     -267.82966      1890.8913      803.18832      0.0011992806   0.0012         0.00046208622 -0.0030518678   0.0011992806   0.00046197949 -0.0030565342   10.365534      3.37036        19.913522      14.430986      0.17248001     10.638275      64.617397      62.458913      54.549815      1              220159.36      1.2498387      9474.2044      12091.951     -3371.8311      879.21713     -894.9285      -17790.865     -26677.906     -45363.7        6            
      6200   296.20779     -26478.315      17714.408     -8763.9073      162.02919     -187.64947     -124.18874      797.92578      0.0012392318   0.00124        0.00075760178 -0.0037902722   0.0012392318   0.00075731494 -0.0037974735   3.4604229     -6.7360766     -1.579722       15.078732      1.6563291     -17.551528      64.619979      62.477362      54.509412      1              220070.07      1.2503458      9345.9429      12013.45      -3369.4182      867.28334     -900.40907     -17757.455     -26677.709     -45335.573      6.2          
      6400   296.52791     -26087.41       17733.553     -8353.8574     -627.14856     -1180.5593     -118.55311     -582.33326      0.0012791815   0.00128        0.00078826924 -0.0051316532   0.0012791815   0.00078795871 -0.0051448653  -4.8475479     -2.1472245     -2.8742171      0.55598719     4.0003153     -3.5280303      64.62256       62.479277      54.436016      1              219789.27      1.2519433      9259.5869      11891.367     -2801.1208      904.34321     -880.29589     -17783.426     -26677.865     -45341.587      6.4          
      6600   300.90401     -26181.358      17995.261     -8186.0975     -101.64185     -949.43034     -55.634787      700.13959      0.0013191296   0.00132        0.001711159   -0.0067244258   0.0013191296   0.0017096966  -0.0067471366   1.4418611     -7.0891101      16.0285       -7.4744437      7.1234715     -6.3587729      64.625142      62.536893      54.348864      1              219648.52      1.2527455      9277.2168      11990.149     -2876.609       892.1573      -1034.2602     -17753.492     -26676.52      -45464.273      6.6          
      6800   298.58482     -26363.058      17856.564     -8506.4936      160.72817     -65.15857      -510.48161      1057.8247      0.001359076    0.00136        0.0033175225  -0.0089288434   0.001359076    0.0033120316  -0.0089689444  -4.3310048      7.7687238     -18.293387      6.9799817      5.989078      -3.5189513      64.627723      62.637178      54.228246      1              219521.27      1.2534717      9420.855       11879.588     -3105.9987      912.19861     -1017.7532     -17775.034     -26676.913     -45469.701      6.8          
      7000   297.23238     -26237.771      17775.683     -8462.0885      605.13766      1256.7082      149.88218      408.82257      0.0013990209   0.0014         0.0033715943  -0.009840736    0.0013990209   0.0033659232  -0.0098894761   11.194734      3.5948552     -24.250295      3.2357804     -5.0895009      3.0591739      64.630305      62.640554      54.17835       1              219339.86      1.2545084      9285.8998      11958.37      -3012.56        877.48303     -849.89864     -17818.686     -26678.379     -45346.964      7            
      7200   298.34704     -26252.811      17842.344     -8410.4672     -1266.2312     -1187.0033     -1323.5515     -1288.1389      0.0014389642   0.00144        0.0030729468  -0.0075965283   0.0014389642   0.003068235   -0.0076255288   9.5068908      8.7799504     -13.584152      17.907564     -2.6475374      28.214485      64.632887      62.62191       54.301146      1              219780.34      1.2519941      9140.5327      11944.895     -2828.8509      908.51368     -986.86764     -17754.606     -26676.428     -45417.902      7.2          
      7400   299.01202     -26399.427      17882.112     -8517.3145      390.55681      364.05537      111.53797      696.07709      0.0014789059   0.00148        0.0034855088  -0.0054009635   0.0014789059   0.0034794485  -0.0054156014   6.1751626     -11.262649      13.171541     -6.4411627     -3.667582      -15.636074      64.635468      62.647666      54.42128       1              220365.98      1.2486669      9208.8578      11915.338     -3058.3358      901.44083     -944.69752     -17745.278     -26676.752     -45366.728      7.4          
      7600   297.44225     -26489.353      17788.234     -8701.1187     -846.86233     -792.17392     -1012.1226     -736.29049      0.001518846    0.00152        0.0025817298  -0.0039962532   0.001518846    0.0025784029  -0.0040042595   24.924518      23.428625      18.227075     -6.5704892     -1.2775846     -3.4727245      64.63805       62.591243      54.498141      1              220487.26      1.24798        9222.5333      11952.931     -3206.3195      885.48483     -924.59096     -17742.789     -26676.602     -45343.982      7.6          
      7800   296.83606     -26473.357      17751.981     -8721.3755      479.53335     -414.98957      410.14676      1443.4428      0.0015587845   0.00156        0.00011370746 -0.003294595    0.0015587845   0.00011370099 -0.0033000342   28.005923     -3.5996165     -1.1770051     -0.10788982     17.002329     -3.1744194      64.640631      62.437164      54.536534      1              220108.23      1.2501291      9269.5037      12055.75      -3366.7803      883.36584     -865.57498     -17772.102     -26677.519     -45315.195      7.8          
      8000   298.91069     -26247.509      17876.053     -8371.456       166.33217     -322.56102     -307.50866      1129.0662      0.0015987214   0.0016        -0.0012392843  -0.0036855647   0.0015987214  -0.0012400529  -0.0036923732  -2.1781262     -21.698962      4.7962942      1.7299612      6.5028978      10.756646      64.643213      62.352697      54.515141      1              219733.01      1.2522638      9382.6376      11958.466     -3196.3798      895.04393     -847.99262     -17762.488     -26676.795     -45287.276      8            
      8200   297.12956     -26304.511      17769.534     -8534.9772     -379.2409      -714.89843     -1031.6938      608.86948      0.0016386567   0.00164       -7.5168368e-05 -0.0035584063   0.0016386567  -7.5171193e-05 -0.0035647525   21.517391     -19.179755      2.9991645      13.421114     -1.6616511      7.242579       64.645795      62.425372      54.522099      1              220025.99      1.2505964      9166.9794      11948.529     -3018.1043      895.38017     -846.9629      -17773.026     -26677.305     -45297.295      8.2          
      8400   298.09225     -26380.444      17827.107     -8553.3374     -36.027882      128.18087     -554.87773      318.61322      0.0016785904   0.00168        0.0019940169  -0.0040945308   0.0016785904   0.0019920315  -0.0041029363   20.007108      10.1519        8.9874602      6.2547832      11.646961      3.4703221      64.648376      62.554552      54.492764      1              220371.47      1.2486358      9222.8254      12000.658     -3107.2517      901.1606      -928.61217     -17791.619     -26677.605     -45397.836      8.4          
      8600   298.33189     -26264.292      17841.438     -8422.8542      357.8948       387.33317      737.40128     -51.050041      0.0017185225   0.00172        0.0034132281  -0.0063613331   0.0017185225   0.0034074163  -0.0063816526  -3.7719809      3.7718543     -1.8394237     -3.7686933     -1.3118895      8.5274103      64.650958      62.643153      54.368731      1              220190.09      1.2496643      9238.3543      12143.255     -3173.7658      906.41613     -961.25392     -17741.191     -26676.107     -45378.552      8.6          
      8800   298.26754     -26221.912      17837.589     -8384.3223     -536.99211     -1194.6843      217.79101     -634.08308      0.001758453    0.00176        0.0040500805  -0.0085662624   0.001758453    0.004041901   -0.0086031637  -4.367804      -8.2822655      9.262197      -2.2761041      6.0985796      2.9663151      64.653539      62.682912      54.248085      1              219849.7       1.2515992      9288.1867      12038.888     -3095.6921      901.62781     -902.33987     -17774.897     -26677.684     -45354.922      8.8          
      9000   297.56027     -26280.765      17795.292     -8485.4727     -653.16759     -906.17601     -820.45106     -232.87569      0.0017983819   0.0018         0.0067609281  -0.010697586    0.0017983819   0.0067381755  -0.010755216   -3.9408148      8.5833993     -6.2112254      26.511188      11.421826      7.4340188      64.656121      62.85215       54.131466      1              219978.16      1.2508683      9141.9037      11913.736     -2842.931       888.55022     -926.17869     -17778.295     -26677.55      -45382.024      9            
      9200   299.86439     -26294.625      17933.087     -8361.5375      190.82352      300.95332      84.900411      186.61685      0.0018383093   0.00184        0.0077862039  -0.012084692    0.0018383093   0.0077560478  -0.012158306    31.901237      18.382381     -6.5932382      7.2284724      0.33278629     11.377071      64.658703      62.916158      54.055568      1              219902.22      1.2513003      9245.679       12033.159     -3035.746       922.08617     -1022.814      -17759.712     -26677.277     -45459.803      9.2          
      9400   302.2783      -26672.478      18077.449     -8595.0286      828.44549      814.51125      689.5763       981.24891      0.001878235    0.00188        0.0056800333  -0.01310989     0.001878235    0.0056639627  -0.013196583    27.531016      14.598188     -21.208068      9.3330249     -6.2550065     -6.749627       64.661284      62.78467       53.999472      1              219223.68      1.2551733      9333.1203      11999.273     -3555.1101      874.10963     -891.03907     -17755.716     -26677.116     -45323.87       9.4          
      9600   299.09496     -26397.306      17887.072     -8510.234      -617.43518     -864.92092     -319.38745     -667.99717      0.0019181592   0.00192        0.004798737   -0.011785801    0.0019181592   0.0047872598  -0.011855804   -17.277782     -8.7334912     -10.745827      12.385723      13.06398       4.4999986      64.663866      62.729651      54.071922      1              219334.19      1.2545408      9200.6487      11887.296     -3012.7847      888.90299     -903.2609      -17782.367     -26675.742     -45361.369      9.6          
      9800   299.92513     -26358.488      17936.72      -8421.7678     -1135.5174     -1034.7826     -803.01926     -1568.7503      0.0019580817   0.00196        0.0055340673  -0.008615851    0.0019580817   0.0055188107  -0.0086531821  -7.036929      -8.3496578     -11.878923      6.5584982      0.90155057     8.0733728      64.666447      62.775557      54.245371      1              220207.58      1.2495651      9081.803       11916.149     -2843.7262      898.18893     -963.02685     -17771.306     -26676.57      -45410.903      9.8          
     10000   297.24846     -26406.167      17776.645     -8629.5222      690.58711      889.94821      314.79712      867.01599      0.0019980027   0.002          0.0054008507  -0.0073217363   0.0019980027   0.0053863184  -0.0073486718  -1.9559777      4.0479362      8.3967891      2.4655971      11.38458      -3.8318496      64.669029      62.767241      54.316181      1              220474.62      1.2480516      9334.9999      11929.444     -3288.9633      892.01867     -836.79247     -17759.998     -26676.876     -45273.666      10           
     10200   297.83514     -26322.094      17811.73      -8510.3632      558.38293      492.01406      441.6229       741.51184      0.002037922    0.00204        0.0040977003  -0.0064384506   0.002037922    0.0040893275  -0.0064592668   6.5770296      16.068304      2.8990549      5.8371495      8.355376       4.3593733      64.671611      62.685885      54.364512      1              220393.58      1.2485105      9495.5557      12004.715     -3398.1657      906.68987     -908.40527     -17744.406     -26678.077     -45330.889      10.2         
     10400   299.05372     -26350.787      17884.606     -8466.1808     -472.44125     -1642.7237      269.09835     -43.698412      0.0020778398   0.00208        0.0031777447  -0.006414776    0.0020778398   0.0031727064  -0.0064354391   5.8360694     -22.537314     -14.712283      14.828749     -3.5524252      6.1095552      64.674192      62.628452      54.365807      1              220205.69      1.2495758      9212.8582      11903.833     -3114.4716      879.53011     -794.1502      -17761.271     -26677.116     -45232.537      10.4         
     10600   296.66133     -26357.827      17741.532     -8616.295      -942.92419     -317.05        -816.12748     -1695.5951      0.002117756    0.00212        0.0038225559  -0.0057903811   0.002117756    0.0038152685  -0.0058072104   16.006681      6.7892835      17.711312      5.8718175     -2.4456045      15.597573      64.676774      62.668708      54.399972      1              220494.5       1.2479391      9212.7103      12039.48      -3147.0279      884.84799     -939.20376     -17732.173     -26676.461     -45347.837      10.6         
     10800   298.85142     -26186.88       17872.508     -8314.3714      298.61244      104.92432      1294.9227     -504.00966      0.0021576706   0.00216        0.0036846536  -0.0060225119   0.0021576706   0.0036778819  -0.0060407203   7.514472      -2.6475347     -10.353175      15.590034     -0.51350824     10.874838      64.679355      62.660098      54.387271      1              220421.53      1.2483522      9409.3342      12073.698     -3218.323       894.61435     -914.68152     -17754.654     -26676.867     -45346.203      10.8         
     11000   298.34698     -26281.603      17842.341     -8439.2626      944.70999      913.96942      1321.7906      598.36997      0.0021975835   0.0022         0.0036543244  -0.0059193628   0.0021975835   0.0036476636  -0.0059369516   7.5647712      6.586161      -7.167229       9.966717       0.63946445     3.5430022      64.681937      62.658205      54.392915      1              220446.55      1.2482106      9395.1185      11801.648     -3089.7138      897.32228     -859.03845     -17749.401     -26677.539     -45285.978      11           
     11200   297.31892     -26191.556      17780.859     -8410.6977     -622.84214     -373.04292     -3.4905391     -1491.993       0.0022374949   0.00224        0.0032509683  -0.0058398372   0.0022374949   0.0032456953  -0.0058569557   26.681017      1.4189589      13.445995      6.3427232     -6.4974847     -10.334174      64.684519      62.633023      54.397266      1              220384.37      1.2485627      9223.3426      11882.98      -2888.6027      911.03908     -881.76938     -17761.404     -26677.142     -45320.315      11.2         
     11400   299.04375     -26449.097      17884.01      -8565.0875     -462.68861      87.403504     -310.09474     -1165.3746      0.0022774047   0.00228        0.0028387736  -0.0056867784   0.0022774047   0.0028347519  -0.0057030097   25.635439      9.7221293      21.790858      6.2479299      13.931736      1.2846425      64.6871        62.60729       54.405641      1              220336.54      1.2488338      9176.6798      11985.852     -3105.2624      878.38514     -951.0645      -17757.433     -26676.254     -45384.751      11.4         
     11600   295.12123     -26515.397      17649.427     -8865.9696      734.40317      676.07147      1780.0031     -252.8651       0.002317313    0.00232        0.0011560714  -0.0064887907   0.002317313    0.0011554036  -0.0065099344  -14.330624      3.5875804     -24.007502      17.321299      8.5267646      5.6534155      64.689682      62.502239      54.361757      1              219798.17      1.2518926      9364.6283      11872.539     -3338.0141      887.09557     -831.55008     -17792.317     -26677.778     -45301.645      11.6         
     11800   298.46445     -26215.002      17849.365     -8365.6365      34.677744     -38.997442      405.40986     -262.37919      0.0023572196   0.00236       -0.00018453087 -0.00615272     0.0023572196  -0.00018454789 -0.0061717259  -7.3543337     -19.207004     -14.836485      1.0092902      3.1261474     -2.9392996      64.692263      62.418545      54.380146      1              219586.86      1.2530973      9366.1676      11855.683     -2985.1113      896.26841     -895.19617     -17775.308     -26677.504     -45348.009      11.8         
     12000   296.18031     -26340.79       17712.765     -8628.0251      570.57006      565.38149      282.28574      864.04293      0.0023971246   0.0024        -0.00013181213 -0.0048677376   0.0023971246  -0.00013182082 -0.0048796236   4.4435281     -5.7671263      8.0755928     -8.0316973      8.0499246      4.4158056      64.694845      62.421836      54.450456      1              219891.14      1.2513633      9319.9777      11953.472     -3169.5503      893.23702     -885.3781      -17775.439     -26677.11      -45337.926      12           
     12200   299.19972     -26380.412      17893.338     -8487.0742      570.40865     -84.319089      1132.0922      663.45285      0.002437028    0.00244       -0.0012647171  -0.0044251572   0.002437028   -0.0012655175  -0.0044349772   10.449538      16.829277      5.708194       14.28944       0.32688937    -5.468018       64.697427      62.351109      54.474673      1              219748.45      1.2521759      9254.4269      11918.662     -3107.7376      868.85867     -895.45891     -17741.604     -26677.56      -45314.622      12.2         
     12400   299.60794     -26354.475      17917.751     -8436.724      -300.05786     -382.46974     -279.80988     -237.89395      0.0024769299   0.00248       -0.0015587594  -0.0032419897   0.0024769299  -0.0015599755  -0.0032472564   12.051811     -5.639951       2.8193482      3.7499277      10.212982      1.7385895      64.700008      62.332752      54.539412      1              219953.61      1.2510079      9209.6432      12055.207     -3126.9189      892.97853     -938.89019     -17768.903     -26677.591     -45385.385      12.4         
     12600   296.64897     -26442.438      17740.793     -8701.6454      34.094181      712.67399      92.26252      -702.65397      0.0025168301   0.00252       -0.0012985141  -0.0036264949   0.0025168301  -0.0012993579  -0.0036330865   7.9254019     -8.3877989      17.357425     -2.8025943      1.6670638     -11.505134      64.70259       62.348999      54.518373      1              219934.84      1.2511147      9306.7065      12013.816     -3297.8004      895.39022     -927.9516      -17755.487     -26677.112     -45360.551      12.6         
     12800   302.13051     -26322.815      18068.61      -8254.2049      585.72849      851.02734      244.01596      662.14217      0.0025567288   0.00256       -0.00013743733 -0.0055991129   0.0025567288  -0.00013744677 -0.0056148467  -8.1012864     -19.772079     -14.72384      -9.3724552     -3.0501915     -3.6106344      64.705171      62.421485      54.410438      1              219763.37      1.2520908      9449.5664      11974.564     -3273.0766      863.89311     -892.12255     -17767.536     -26678.105     -45337.763      12.8         
     13000   296.86423     -26276.412      17753.666     -8522.7463      275.24394      1506.809      -306.15739     -374.91982      0.0025966258   0.0026         0.0021924198  -0.0055431237   0.0025966258   0.00219002    -0.0055585438   22.299731     -4.0198054     -21.447052      4.1106007      9.4151304      14.606454      64.707753      62.566938      54.413501      1              220296.65      1.2490599      9257.3635      12100.323     -3214.4667      895.60017     -864.40804     -17773.98      -26676.844     -45315.232      13           
     13200   297.10848     -26246.848      17768.273     -8478.5752     -219.66169      732.10486     -607.39152     -783.69842      0.0026365213   0.00264        0.0033325434  -0.0052280178   0.0026365213   0.0033270028  -0.0052417317   6.9195568      25.408018      29.389313      14.571719      10.718922      4.8627283      64.710335      62.638116      54.430743      1              220625.95      1.2471955      9282.0842      12047.464     -3118.1487      876.37201     -920.27995     -17737.453     -26676.886     -45334.62       13.2         
     13400   299.28194     -26271.524      17898.255     -8373.2696     -778.91148     -311.99509     -998.76654     -1025.9728      0.0026764152   0.00268        0.0043096553  -0.0070048644   0.0026764152   0.0043003953  -0.0070295136   15.920835      5.0976401      1.7402545      15.293371      24.856584      4.3705221      64.712916      62.699117      54.333519      1              220455.14      1.2481619      9321.413       11993.2       -3145.0474      874.74986     -907.73963     -17730.195     -26677.904     -45315.839      13.4         
     13600   297.92384     -26415.48       17817.035     -8598.4444      26.045992      571.16666     -126.37765     -366.65103      0.0027163075   0.00272        0.004546281   -0.0090510965   0.0027163075   0.0045359779  -0.0090923065   6.0943434      0.10323726    -9.5944628     -7.0268647      28.321284      1.7915804      64.715498      62.71389       54.221556      1              220061.47      1.2503947      9283.7698      11995.518     -3156.1516      849.98035     -965.61488     -17746.398     -26676.584     -45388.596      13.6         
     13800   301.48892     -26405.2        18030.241     -8374.959       468.38161      1102.1338      725.45336     -422.44232      0.0027561982   0.00276        0.0038366402  -0.011157615    0.0027561982   0.003829299   -0.011220328   -15.518515      3.1188052     -6.8480071      0.95082191     12.904027     -2.5117562      64.718079      62.669587      54.106294      1              219447.3       1.2538942      9338.8904      11933.362     -3219.8367      870.9963      -921.3346      -17730.99      -26676.287     -45328.612      13.8         
     14000   299.21926     -26261.161      17894.506     -8366.6545      657.65858     -54.125242      1025.861       1001.24        0.0027960873   0.0028         0.0039367954  -0.010551393    0.0027960873   0.0039290665  -0.010607454    10.41423      -9.8314395     -25.475522      7.391171      -4.1753743      13.371478      64.720661      62.67584       54.139465      1              219612.5       1.252951       9280.9881      12212.021     -3274.171       880.97312     -927.04629     -17756.787     -26677.139     -45360.972      14           
     14200   297.01161     -26252.059      17762.48      -8489.579      -602.63493      109.14364     -641.61643     -1275.432       0.0028359748   0.00284        0.0047611693  -0.0080958983   0.0028359748   0.0047498708  -0.008128848    31.214591      7.4548775     -0.1947264      8.4301975     -5.1435692      9.3983367      64.723243      62.727305      54.273822      1              220347.08      1.248774       9315.8693      12056.544     -3116.0928      889.36787     -969.35049     -17750.198     -26678.199     -45397.747      14.2         
     14400   301.28996     -26661.976      18018.342     -8643.6336      606.82432     -99.810518      321.98777      1598.2957      0.0028758607   0.00288        0.0028913246  -0.0068945573   0.0028758607   0.0028871527  -0.0069184346   45.950661      30.881726      11.345775      5.8726588      13.662385     -1.1013846      64.725824      62.610571      54.339555      1              220212.18      1.249539       9268.6373      11924.521     -3366.5677      862.89704     -891.95543     -17781.763     -26677.745     -45351.464      14.4         
     14600   296.05756     -26441.611      17705.424     -8736.1866      184.95775      461.54081      197.8828      -104.55036      0.0029157451   0.00292        0.0013522543  -0.0053741047   0.0029157451   0.0013513408  -0.0053885971   11.647452     -22.265381      17.015599      1.6894545      8.573826      -0.86011385     64.728406      62.514487      54.422749      1              220219.64      1.2494966      9245.734       11981.953     -3061.4686      867.80498     -1018.0425     -17779.785     -26677.807     -45475.634      14.6         
     14800   297.48319     -26243.067      17790.682     -8452.385      -25.754331      913.96577     -236.51866     -754.7101       0.0029556278   0.00296       -0.0002896708  -0.005537483    0.0029556278  -0.00028971276 -0.0055528717  -1.6167947     -0.35681944    -1.3817716     -5.4870259      2.8917737      9.1844587      64.730987      62.411981      54.41381       1              219831.2       1.2517045      9336.6237      12097.047     -3217.0873      880.86496     -911.31518     -17751.964     -26677.236     -45340.515      14.8         
     15000   296.38621     -26325.563      17725.078     -8600.4845     -320.28193     -22.46946      -823.02227     -115.35405      0.002995509    0.003         -0.00031774061 -0.0070145249   0.002995509   -0.0003177911  -0.0070392424  -8.412727      -31.959444      8.0948126      5.929777       5.5983349     -7.0062076      64.733569      62.410229      54.332991      1              219507.28      1.2535516      9317.552       12002.899     -3191.1898      864.57686     -905.01948     -17737.777     -26676.604     -45319.401      15           
     15200   297.57497     -26300.799      17796.171     -8504.6273     -125.6173      -121.65604     -1465.6145      1210.4186      0.0030353885   0.00304        0.0017948496  -0.0077641003   0.0030353885   0.0017932408  -0.0077943979   21.894706      4.5318235     -19.28305      -3.8348001     -0.024791757   -3.1441083      64.73615       62.542118      54.291977      1              219813.88      1.2518031      9163.857       12143.161     -3019.0507      864.57525     -993.77601     -17783.25      -26676.315     -45453.341      15.2         
     15400   300.82591     -26250.729      17990.59      -8260.1382      4.8978694     -95.697492     -51.504854      161.89595      0.0030752665   0.00308        0.0043194129  -0.0071105623   0.0030752665   0.004310111   -0.0071359628   5.9368206      1.0549417     -5.482509       7.6897411     -9.213311       16.698442      64.738732      62.699726      54.327736      1              220521.76      1.2477848      9438.0516      12036.091     -3318.3884      884.35997     -886.35331     -17728.223     -26676.266     -45290.842      15.4         
     15600   300.7503      -26352.873      17986.069     -8366.8039      769.23562      109.27649      407.90054      1790.5298      0.0031151429   0.00312        0.0055373129  -0.006930731    0.0031151429   0.0055220383  -0.0069548601   31.048978      36.128521      4.5174242      7.4442714     -3.5610883      1.9173818      64.741314      62.77576       54.337576      1              220837.97      1.2459982      9410.5491      12021.891     -3296.2377      891.78492     -941.07193     -17763.299     -26676.488     -45380.86       15.6         
     15800   298.056       -26243.51       17824.938     -8418.5714     -558.45262     -1114.6067     -462.34517     -98.405985      0.0031550177   0.00316        0.003460802   -0.0075709547   0.0031550177   0.0034548272  -0.0075997598   18.372442      12.143438      10.707682      14.513082     -12.876803      1.7397047      64.743895      62.646123      54.302545      1              220248.63      1.2493322      9269.5024      11980.286     -3012.0593      892.36891     -909.85574     -17785.834     -26677.918     -45373.607      15.8         
     16000   296.53253     -26326.125      17733.829     -8592.2963     -656.25265     -796.18603     -1097.8724     -74.699488      0.0031948909   0.0032         0.0012573248  -0.0080769152   0.0031948909   0.001256535   -0.0081097102   8.2266016      4.7369063     -4.0360238     -12.605752      2.9058918     -2.8688813      64.746477      62.50856       54.27486       1              219661.71      1.2526703      9218.6462      11833.37      -2889.8514      914.40018     -976.30146     -17750.101     -26676.287     -45402.69       16           
     16200   300.08397     -26385.543      17946.219     -8439.3241      399.12063      243.08148      1197.7041     -243.4237       0.0032347625   0.00324       -0.00060022926 -0.0072271427   0.0032347625  -0.00060040947 -0.007253385    6.1034518     -21.759492     -20.679364      3.7856584      4.5760312      6.3337234      64.749058      62.392593      54.321357      1              219450.77      1.2538744      9342.3761      12056.869     -3257.8089      882.2947      -952.35395     -17779.119     -26677.802     -45409.275      16.2         
     16400   299.5624      -26502.977      17915.028     -8587.9496      260.81167      230.41702      1181.8266     -629.80857      0.0032746325   0.00328       -0.00076196918 -0.0052746307   0.0032746325  -0.00076225963 -0.0052885906   14.01434      -10.701725     -6.5414229      15.324019     -4.0106104      5.1134499      64.75164       62.382495      54.428192      1              219855.55      1.2515659      9221.8313      11981.562     -3191.5437      899.35134     -941.27002     -17796.189     -26676.719     -45414.178      16.4         
     16600   297.55122     -26377.355      17794.751     -8582.6045      560.69115     -152.57197      968.71909      865.92634      0.003314501    0.00332       -0.0012325565  -0.0050140337   0.003314501   -0.0012333167  -0.0050266461   33.19358       13.146821      37.212396      20.114954     -17.023957      0.016130504    64.754222      62.353117      54.442451      1              219818.34      1.2517777      9407.6302      11980.122     -3256.1787      896.6329      -957.59963     -17770.265     -26677.697     -45405.562      16.6         
     16800   303.79895     -26186.864      18168.39      -8018.4744      12.263574      553.2269      -279.01324     -237.42293      0.0033543678   0.00336       -0.0019339435  -0.0061760419   0.0033543678  -0.001935816   -0.0061951925  -4.8662221     -17.301261     -12.919339      2.8627798      8.7003017      4.3944022      64.756803      62.309329      54.37887       1              219416.18      1.2540721      9261.6889      11971.285     -3016.9506      906.70632     -861.08059     -17771.045     -26677.468     -45309.594      16.8         
     17000   298.14593     -26055.573      17830.317     -8225.2557     -1324.2607     -963.86554     -1270.9614     -1737.9551      0.0033942331   0.0034         0.00023587339 -0.0061336301   0.0033942331   0.00023584557 -0.0061525181   0.28826331    -18.922935     -10.830667      20.854943      11.433254      10.747225      64.759385      62.444791      54.381191      1              219911.35      1.2512483      9285.3928      11954.359     -2801.762       896.50514     -968.27315     -17745.273     -26676.522     -45390.068      17           
     17200   297.79591     -26544.284      17809.384     -8734.9001      269.4535      -64.881908      592.40724      280.83518      0.0034340967   0.00344        0.0012994497  -0.006441732    0.0034340967   0.0012986061  -0.0064625695   9.8217637      29.173034      8.3604928     -7.8440672     -1.6566869     -7.6780274      64.761966      62.51119       54.364332      1              220085.71      1.250257       9401.6293      11933.078     -3335.4343      877.97905     -1007.4883     -17737.045     -26677.003     -45421.536      17.2         
     17400   299.50547     -26526.948      17911.623     -8615.3256      785.34091      678.67499      427.37065      1249.9771      0.0034739588   0.00348       -0.00020599283 -0.006403104    0.0034739588  -0.00020601405 -0.0064236918   18.759582      12.841886     -5.6220924      0.44298181    -3.9022024     -5.0818919      64.764548      62.417205      54.366446      1              219772.12      1.252041       9298.2465      11913.402     -3233.2781      907.9508      -960.19431     -17776.483     -26676.593     -45413.27       17.4         
     17600   298.59868     -26044.146      17857.393     -8186.7532     -477.46397     -760.51776      36.590959     -708.4651       0.0035138193   0.00352       -0.0022685276  -0.0076968355   0.0035138193  -0.0022711046  -0.007726609   -7.7609023      1.216099      -0.70188146     2.1367432      0.177233      -9.5798487      64.76713       62.288441      54.295657      1              219041.9       1.2562149      9264.506       12086.784     -2856.4033      917.75537     -1002.7041     -17776.695     -26677.39      -45456.788      17.6         
     17800   297.27254     -26333.436      17778.085     -8555.3509     -521.79284     -480.06997      164.01428     -1249.3228      0.0035536782   0.00356       -0.0033798183  -0.007689564    0.0035536782  -0.0033855428  -0.0077192812  -15.425694     -19.259149     -3.0056038      5.4077389     -4.1569369     -2.4291241      64.769711      62.219063      54.296055      1              218808.26      1.2575563      9248.3826      11987.043     -3036.5323      891.30791     -997.90073     -17748.422     -26677.314     -45423.637      17.8         
     18000   296.74461     -26289.165      17746.512     -8542.653       432.68847      1420.7655      645.57215     -768.27222      0.0035935355   0.0036        -0.0019355945  -0.0063645894   0.0035935355  -0.0019374701  -0.0063849298  -19.418609     -19.686834     -15.399631      8.5437046      7.1354173     -5.1569389      64.772293      62.309226      54.368553      1              219426.67      1.2540121      9356.4515      12021.112     -3161.0772      894.32827     -964.70923     -17758.099     -26677.171     -45399.98       18           
     18200   297.42656     -26349.409      17787.296     -8562.1133      34.597963      418.02089     -398.76043      84.533425      0.0036333912   0.00364        0.00046139171 -0.004902589    0.0036333912   0.00046128531 -0.0049146461   9.9109977      1.4098256     -2.6108941      9.4973769      0.2165826      0.43583294     64.774874      62.45887       54.448549      1              220286.06      1.2491199      9410.5381      11900.225     -3155.1736      871.6177      -910.28748     -17789.724     -26676.605     -45376.616      18.2         
     18400   298.20915     -26413.644      17834.097     -8579.5465     -580.33591     -475.88211     -1078.9723     -186.1533       0.0036732454   0.00368        0.00046758956 -0.0038445023   0.0036732454   0.00046748028 -0.0038519114   44.205037      37.769928      12.597281      13.088397      3.0539234      9.634093       64.777456      62.459257      54.506444      1              220530.45      1.2477357      9169.6069      11948.285     -2976.6762      870.89031     -982.74029     -17765.842     -26677.168     -45425.75       18.4         
     18600   300.43896     -26038.696      17967.449     -8071.2467     -941.83919     -950.88538     -747.34373     -1127.2885      0.0037130979   0.00372        0.00031608374 -0.0032984852   0.0037130979   0.0003160338  -0.0033039372   34.576967     -9.6384781      11.686421     -1.5501301      4.2171952      8.2522751      64.780038      62.449798      54.536321      1              220626.7       1.2471913      9213.6723      12093.98      -2858.7947      904.04537     -970.08726     -17744.129     -26677.383     -45391.599      18.6         
     18800   299.22482     -26230.921      17894.839     -8336.0817      394.32183      876.28693      964.79886     -658.12029      0.0037529489   0.00376       -0.0011753032  -0.0030545138   0.0037529489  -0.0011759944  -0.0030591883   18.686954     -5.6864719     -8.3599259      14.022252     -0.36777634     6.6336559      64.782619      62.356691      54.54967       1              220360.47      1.2486981      9321.245       11967.953     -3108.3104      882.20406     -897.50753     -17719.101     -26677.403     -45294.012      18.8         
     19000   297.78883     -26425.999      17808.961     -8617.0387      520.62328      1342.2615     -110.82676      330.43512      0.0037927982   0.0038        -0.0020700533  -0.0036381376   0.0037927982  -0.0020721988  -0.0036447717   17.637529      15.990807      32.325218      7.7843547     -2.6763528     -2.4886207      64.785201      62.300832      54.517736      1              220042.95      1.2505         9363.6274      11947.414     -3318.6669      884.84953     -868.07211     -17757.868     -26677.283     -45303.223      19           
     19200   299.2957      -26430.497      17899.077     -8531.4197      15.832205     -754.16659      300.6923       500.97091      0.003832646    0.00384       -0.0033499359  -0.0073403472   0.003832646   -0.0033555595  -0.0073674201   11.094941     -22.07317      -3.8799437     -2.8687045     -9.9879635      1.4530871      64.787782      62.220929      54.315163      1              218952.89      1.2567256      9282.7081      11922.553     -3057.4066      879.32551     -1007.598      -17771.861     -26678.218     -45457.677      19.2         
     19400   299.9338      -26320.519      17937.239     -8383.2809      321.51278      919.84246     -473.78161      518.47749      0.0038724922   0.00388       -0.0033314477  -0.0094298867   0.0038724922  -0.0033370093  -0.0094746296   14.847017     -2.8271786     -18.462561     -2.5127138      1.7996795      0.7368538      64.790364      62.222083      54.20083       1              218504.76      1.259303       9258.5927      12004.43      -3096.7041      882.44658     -891.45235     -17799.306     -26678.526     -45369.285      19.4         
     19600   296.77029     -26430.245      17748.048     -8682.1968      315.92801      993.04067     -656.96106      611.70442      0.0039123368   0.00392       -0.0024703147  -0.0078914206   0.0039123368  -0.002473371   -0.0079227226  -25.240236     -6.7371161     -33.910971      10.274277      6.8679275     -7.8500868      64.792946      62.275843      54.28501       1              219041.93      1.2562147      9325.2625      11956.171     -3209.2818      900.86702     -962.08914     -17763.166     -26678.009     -45403.264      19.6         
     19800   297.62041     -26423.399      17798.889     -8624.5102      452.031        441.18775      328.8366       586.06865      0.0039521798   0.00396       -0.00088339584 -0.0046795775   0.0039521798  -0.00088378627 -0.004690561    8.9160718     -4.4933363      5.6346399      14.073879     -6.2321884     -2.7625991      64.795527      62.374915      54.460752      1              220109.42      1.2501224      9377.7329      11927.271     -3183.0192      921.69635     -1049.5398     -17739.255     -26678.285     -45467.08       19.8         
     20000   300.44437     -26073.876      17967.773     -8106.1028     -531.73216     -202.45423     -264.19609     -1128.5462      0.0039920213   0.004         -0.0006438686  -0.0041284192   0.0039920213  -0.00064407597 -0.0041369647   13.314639      6.8439528      16.221171     -11.748507     -12.095975     -10.657683      64.798109      62.389868      54.490909      1              220292.88      1.2490813      9359.2906      11959.129     -2928.14        907.83497     -919.98056     -17774.703     -26677.307     -45371.99       20           
     20200   298.61926     -26365.098      17858.624     -8506.4738      211.00551     -306.22655      23.462661      915.78043      0.0040318611   0.00404       -0.001228743   -0.0053970828   0.0040318611  -0.0012294985  -0.0054116996   27.046639      9.0753041      1.9349348     -4.9382461      3.5169064      5.7192702      64.80069       62.353355      54.421492      1              219892.24      1.251357       9175.1678      12020.131     -3090.0069      903.68138     -907.85489     -17789.54      -26676.676     -45374.071      20.2         
     20400   297.60854     -26418.072      17798.179     -8619.8936     -536.27038     -246.09059     -943.50531     -419.21523      0.0040716994   0.00408       -0.0012374875  -0.0051389326   0.0040716994  -0.0012382538  -0.0051521823   1.3856956     -9.1695163     -9.5848789      17.859562      0.93963388     3.7530624      64.803272      62.352809      54.435617      1              219956.15      1.2509935      9238.3794      11992.898     -3168.2068      904.26155     -941.38985     -17766.436     -26677.578     -45385.404      20.4         
     20600   297.21378     -26355.451      17774.57      -8580.8801      283.53186      235.69012      90.735169      524.17029      0.004111536    0.00412       -0.0005353453  -0.004720074    0.004111536   -0.00053548865 -0.0047312488   22.02619      -2.1702942      13.674145      3.0934561     -16.443237      9.0069828      64.805854      62.396644      54.458536      1              220212.23      1.2495387      9432.9582      11895.571     -3134.6943      897.11856     -1005.9312     -17762.317     -26678.156     -45446.404      20.6         
     20800   298.38922     -26353.39       17844.867     -8508.5238     -146.57662     -314.66899     -194.04494      68.984077      0.0041513711   0.00416       -0.0010504508  -0.0054478612   0.0041513711  -0.0010510029  -0.0054627549   26.003672      12.13548       8.7421423     -0.53329413    -12.621017      2.7131458      64.808435      62.364486      54.418714      1              219946.55      1.2510481      9269.133       11970.336     -3121.5288      903.07305     -947.47892     -17750.134     -26676.792     -45374.404      20.8         
     21000   298.21501     -26319.227      17834.448     -8484.7785      258.4547      -46.572623      1082.0415     -260.10476      0.0041912046   0.0042        -0.00038277788 -0.0069127799   0.0041912046  -0.00038285116 -0.0069367839   19.394417     -20.866393      0.67900519     5.4066396      10.392892     -13.718256      64.811017      62.406168      54.338558      1              219778.12      1.2520068      9250.2906      11969.17      -3032.8266      899.0272      -969.6078      -17758.058     -26677.222     -45404.888      21           
     21200   296.98661     -26379.717      17760.985     -8618.7318     -92.433389      450.63821     -302.0065      -425.93187      0.0042310365   0.00424        0.0015219125  -0.0073113234   0.0042310365   0.0015207556  -0.0073381821   4.7494292      9.1059334     -10.93489       12.629994      18.428812      7.2294312      64.813598      62.525078      54.316751      1              220117.29      1.2500776      9196.2634      11929.253     -3005.6973      885.49221     -972.45447     -17736.041     -26676.532     -45385.028      21.2         
     21400   303.40121     -26306.55       18144.603     -8161.947       422.989        605.8605      -816.58291      1479.6894      0.0042708669   0.00428        0.0020380648  -0.0075639467   0.0042708669   0.0020359907  -0.0075926984   18.041155      11.300117      0.244151       1.8341941     -6.5031424      4.5090291      64.81618       62.557302      54.302928      1              220183.46      1.249702       9267.7673      11931.488     -3116.3944      874.12275     -810.84189     -17775.417     -26677.275     -45263.534      21.4         
     21600   300.4382      -26266.457      17967.404     -8299.0531     -128.25058      239.00409     -397.78458     -225.97123      0.0043106956   0.00432        0.0013885305  -0.0079276086   0.0043106956   0.0013875674  -0.0079591991   27.637761      4.3082049      15.827869      6.1695343      0.63018959     14.978909      64.818762      62.516751      54.28303       1              219968.86      1.2509211      9185.4074      12152.871     -3089.4602      903.10975     -991.49055     -17749.111     -26677.783     -45418.385      21.6         
     21800   297.40505     -26420.297      17786.009     -8634.2873     -17.934545      565.50662      203.90754     -823.21779      0.0043505227   0.00436        0.00057263223 -0.0090841695   0.0043505227   0.00057246833 -0.0091256822   1.2541562     -2.089074      -17.041018      5.1844199      0.43446254    -8.1196406      64.821343      62.465815      54.219747      1              219542.15      1.2533525      9378.89        11900.401     -3201.3187      880.75988     -946.20591     -17755.26      -26677.563     -45379.029      21.8         
     22000   297.68155     -26409.661      17802.545     -8607.1158      11.593382     -497.72508     -580.86385      1113.3691      0.0043903483   0.0044        -3.1544604e-05 -0.0089708041   0.0043903483  -3.1545102e-05 -0.009011284   -1.6012951     -11.975412     -20.072556      7.1934209     -6.3312685     -5.2207055      64.823925      62.428096      54.22595       1              219443.43      1.2539164      9183.635       11899.43      -3042.5409      903.56282     -909.78174     -17767.525     -26676.441     -45353.748      22           
     22200   298.14522     -25996.115      17830.275     -8165.8404      288.28165     -393.42468      746.27644      511.99318      0.0044301723   0.00444       -0.0017175265  -0.0073086693   0.0044301723  -0.0017190031  -0.0073355085   9.8007042      13.089732      1.064858      -1.447542      -0.26036982    -6.3503028      64.826506      62.32284       54.316896      1              219449.6       1.2538811      9333.4679      11989.864     -2827.4         906.40813     -924.87761     -17796.655     -26676.922     -45398.455      22.2         
     22400   296.84664     -26245.654      17752.614     -8493.0401      137.29776      226.56465      44.422467      140.90618      0.0044699947   0.00448       -0.0024061933  -0.0048495185   0.0044699947  -0.0024090928  -0.0048613156   26.057783     -9.9434651      4.6179658      4.2356766     -19.105012     -2.9600133      64.829088      62.279846      54.451453      1              219850.23      1.2515962      9367.9259      11884.305     -2978.1877      900.25695     -968.25777     -17775.225     -26676.471     -45419.954      22.4         
     22600   296.7481      -26302.268      17746.721     -8555.5468     -556.12534     -1122.3362     -702.0594       156.01958      0.0045098155   0.00452       -0.0026420375  -0.0026059593   0.0045098155  -0.0026455339  -0.0026093608   11.000912     -9.2641527      10.110956      12.069436     -5.4234083      11.386348      64.83167       62.265123      54.574214      1              220302.56      1.2490264      9340.7548      12013.435     -3131.067       899.14207     -987.8244      -17758.737     -26677.971     -45424.532      22.6         
     22800   296.53312     -26522.907      17733.864     -8789.0425     -37.469472      397.60639     -601.43161      91.416801      0.0045496347   0.00456       -0.0028065931  -0.0018278805   0.0045496347  -0.002810539   -0.0018295531   23.11729       3.9929892      26.017177      9.443705      -4.4287998      1.5265986      64.834251      62.254849      54.616788      1              220446.82      1.248209       9358.2408      11824.795     -3252.0015      886.89332     -906.54038     -17756.859     -26677.435     -45340.834      22.8         
     23000   297.54102     -26350.283      17794.141     -8556.1424     -297.07535     -766.53237     -89.456794     -35.236903      0.0045894523   0.0046        -0.003752675   -0.0029918179   0.0045894523  -0.0037597339  -0.0029963024   22.72871      -0.29176838     3.2209322     -2.5626472     -7.8041957     -3.0028992      64.836833      62.195785      54.553101      1              219989.62      1.2508031      9263.0682      11941.866     -3051.0672      904.04355     -939.69489     -17789.945     -26678.554     -45408.194      23           
     23200   301.34124     -26322.86       18021.409     -8301.451      -341.76675      376.93773     -1177.9817     -224.25627      0.0046292684   0.00464       -0.0038860686  -0.0045118645   0.0046292684  -0.003893639   -0.0045220737   13.779566     -22.771353     -28.747607      15.039756      12.778338     -2.2338508      64.839414      62.187458      54.469928      1              219633.56      1.2528309      9310.0055      11939.407     -3072.4821      876.28848     -900.78324     -17797.188     -26678.108     -45376.079      23.2         
     23400   297.69893     -26344.001      17803.585     -8540.4169      189.50533      97.862399      585.78697     -115.13338      0.0046690828   0.00468       -0.0031911809  -0.0044045621   0.0046690828  -0.0031962836  -0.0044142908  -3.7551936      7.4545004      11.333269      5.1961494     -0.28724272    -14.749708      64.841996      62.23084       54.4758        1              219819.21      1.2517728      9330.2611      11940.575     -3166.9464      910.62939     -902.51792     -17778.484     -26677.519     -45358.521      23.4         
     23600   295.46277     -26245.324      17669.853     -8575.4712      186.67034      108.98509      1207.0051     -755.97919      0.0047088957   0.00472       -0.003119503   -0.0045177396   0.0047088957  -0.0031243788  -0.0045279755   27.331379      2.4259242      0.3515286      20.08369      -10.904964     -0.47095995     64.844578      62.235314      54.469607      1              219818.78      1.2517752      9364.2912      11994.777     -3143.7862      891.56843     -936.98282     -17738.514     -26676.678     -45352.174      23.6         
     23800   301.44248     -26418.807      18027.463     -8391.3439     -393.16414     -1485.1732     -324.45483      630.13564      0.004748707    0.00476       -0.0016213489  -0.0055104504   0.004748707   -0.0016226647  -0.005525689    13.224028     -1.1246463     -0.098696701   -1.0781777      1.3555801      4.1194228      64.847159      62.328844      54.415289      1              219938.35      1.2510947      9155.4983      11934.145     -3003.3814      887.64321     -977.40707     -17739.209     -26676.097     -45392.713      23.8         
     24000   297.60443     -26291.973      17797.933     -8494.0399     -371.43926     -60.974335      490.16965     -1543.5131      0.0047885167   0.0048         0.00019404787 -0.0058010923   0.0047885167   0.00019402904 -0.005817984    19.806013      5.8793649     -3.3768985     -1.4485212     -6.1385683      8.1748496      64.849741      62.44218       54.399386      1              220282.65      1.2491392      9252.071       12006.676     -3120.0085      913.83752     -904.25693     -17762.503     -26677.789     -45344.548      24           
     24200   296.01121     -26339.624      17702.652     -8636.972       337.22234     -768.95661      1288.6263      491.9973       0.0048283249   0.00484        0.0017480149  -0.0063564046   0.0048283249   0.0017464889  -0.0063766926   6.3155047      14.578417      10.350367      10.030159     -3.3664765     -4.0171465      64.852322      62.539194      54.369001      1              220510.45      1.2478488      9399.987       11888.866     -3160.9774      903.76781     -906.89331     -17787.296     -26677.078     -45371.267      24.2         
     24400   300.09266     -26201.39       17946.739     -8254.651       233.2999      -579.82455      933.3047       346.41956      0.0048681314   0.00488        0.0018400714  -0.0069671084   0.0048681314   0.0018383805  -0.006991492    22.507899     -4.2949341     -7.9517746      6.0082203     -8.1667468      3.4258563      64.854904      62.544941      54.335585      1              220403.94      1.2484518      9443.3271      11991.106     -3263.0542      895.76323     -859.54513     -17731.777     -26677.21      -45268.532      24.4         
     24600   297.54915     -26154.746      17794.627     -8360.1195     -776.23122     -337.68217     -55.574862     -1935.4366      0.0049079364   0.00492        0.0017687905  -0.0070859584   0.0049079364   0.0017672281  -0.007111183    14.315345      6.0305844     -6.8229003     -0.19405047     3.0190641      10.024687      64.857486      62.540491      54.329082      1              220370.66      1.2486404      9348.9093      12067.598     -3110.7141      912.53823     -957.57103     -17738.778     -26676.729     -45373.078      24.6         
     24800   298.71167     -26368.909      17864.15      -8504.7592     -766.71928     -1572.4483      387.59941     -1115.3089      0.0049477397   0.00496        0.0004416202  -0.0068705948   0.0049477397   0.00044152271 -0.006894306    32.3933        0.37047439    -13.711642      5.6764861     -5.7505351     -2.8957429      64.860067      62.457636      54.340866      1              220135.2       1.2499759      9266.9765      11967.385     -3108.016       897.78329     -961.84417     -17753.317     -26677.877     -45393.038      24.8         
     25000   297.64606     -26501.934      17800.423     -8701.5108     -581.07877     -515.79809     -915.2142      -312.22402      0.0049875415   0.005         -0.00015560639 -0.0053130064   0.0049875415  -0.0001556185  -0.0053271706   33.864412      0.46034036     10.050524      8.2468618     -1.4353611     -2.3017734      64.862649      62.420351      54.426093      1              220357.6       1.2487144      9277.1402      11889.654     -3174.212       934.23215     -1000.9968     -17751.212     -26676.539     -45428.748      25           
     25200   295.01003     -26382.372      17642.777     -8739.5944      730.56118      284.26792      1297.5115      609.90409      0.0050273417   0.00504       -0.0020673864  -0.0039151883   0.0050273417  -0.0020695264  -0.0039228727   27.997341      9.5651586     -11.713337     -2.9074658      0.34864969     13.556136      64.86523       62.300998      54.502577      1              220254.1       1.2493012      9250.87        11927.36      -3149.2652      923.8796      -893.40105     -17763.447     -26678.368     -45335.216      25.2         
     25400   299.98811     -26272.199      17940.487     -8331.7127      451.23986      222.20787      1076.6026      54.909075      0.0050671403   0.00508       -0.0034890137  -0.0017943197   0.0050671403  -0.0034951146  -0.0017959314   18.412375     -16.098898      17.790821      9.0515787      6.6040155     -0.42996636     64.867812      62.212246      54.618624      1              220417.4       1.2483756      9266.4493      11957.382     -3045.3186      917.6573      -907.60377     -17783.238     -26677.526     -45368.369      25.4         
     25600   296.62785     -26243.769      17739.53      -8504.239      -492.88058     -263.6795      -746.66257     -468.29967      0.0051069374   0.00512       -0.0035936716  -0.00022788612  0.0051069374  -0.0036001443  -0.00022791209  18.757847     -13.746509     -26.742664     -0.61986558     0.71814496     4.1338258      64.870394      62.205712      54.704334      1              220748.89      1.2465009      9292.2467      11804.568     -2959.2452      921.32602     -862.35045     -17762.731     -26677.583     -45302.664      25.6         
     25800   298.84527     -26347.928      17872.14      -8475.7881     -725.47919     -118.18563     -213.23946     -1845.0125      0.0051467328   0.00516       -0.0032641568   0.0016096868   0.0051467328  -0.0032694958   0.0016083927   44.670026      2.4692656      24.615739      8.069867       2.1962015      1.1574999      64.872975      62.226284      54.80488       1              221236.57      1.2437533      9161.6142      11838.079     -2984.0162      889.47897     -820.57848     -17754.751     -26677.755     -45253.084      25.8         
     26000   299.18467     -26393.838      17892.438     -8501.4007      705.27864      1578.3928      195.35979      342.08329      0.0051865267   0.0052        -0.0028783128   0.0010551023   0.0051865267  -0.0028824631   0.0010545461   30.508375      1.0750383      23.00304       21.484586      1.0082117      0.16922183     64.875557      62.250372      54.774535      1              221208.47      1.2439113      9388.0181      11908.078     -3254.2541      886.28292     -875.67279     -17768.338     -26677.953     -45321.963      26           
     26200   300.52386     -26627.448      17972.527     -8654.9215      235.36525      847.72482     -85.241391     -56.387668      0.005226319    0.00524       -0.0023053301  -0.0024933013   0.005226319   -0.0023079915  -0.0024964148   21.733726     -18.054294      11.684899      2.2122291     -10.551391     -3.8074619      64.878138      62.286143      54.580378      1              220559.8       1.2475696      9258.6242      11837.277     -3315.7896      888.89961     -859.74102     -17758.433     -26678.285     -45296.459      26.2         
     26400   296.83801     -26259.391      17752.098     -8507.2925      175.19773      1342.6686     -159.48318     -657.59219      0.0052661097   0.00528       -0.00034298831 -0.0056314077   0.0052661097  -0.00034304714 -0.0056473238   21.54925       8.9943832      1.7911892      14.64746      -13.801192      5.4902124      64.88072       62.408652      54.408671      1              220307.14      1.2490004      9296.4769      12010.835     -3065.2408      868.65555     -931.4149      -17760.095     -26678.607     -45370.117      26.4         
     26600   303.118       -26405.436      18127.666     -8277.7691      327.96369      1131.366      -4.5807618     -142.89415      0.0053058988   0.00532        0.00068064301 -0.0067838992   0.0053058988   0.00068041148 -0.0068070145  -0.024063155   -11.79087      -20.539537      11.42133      -7.7262809      13.673655      64.883302      62.472558      54.34561       1              220285.9       1.2491208      9264.8725      12001.38      -3240.9083      894.16963     -888.36381     -17759.179     -26677.407     -45324.95       26.6         
     26800   298.17441     -26338.844      17832.02      -8506.8242     -191.0237       432.90282     -815.34973     -190.62418      0.0053456863   0.00536        0.0018699228  -0.0067710268   0.0053456863   0.0018681767  -0.0067940542   2.6278906      0.66246006    -0.59930481     1.9077452      6.161234      -1.5698881      64.885883      62.546805      54.346314      1              220559.34      1.2475722      9306.3702      11900.234     -3181.3813      882.31517     -840.83354     -17727.019     -26678.529     -45246.382      26.8         
     27000   298.24853     -26386.96       17836.453     -8550.5074     -442.11255     -763.84081     -430.24417     -132.25268      0.0053854723   0.0054         0.0016642889  -0.0072954534   0.0053854723   0.0016629055  -0.0073221954   28.741535      24.12942       15.083072      2.5470017     -10.17915      -8.5468944      64.888465      62.533967      54.317619      1              220406.4       1.2484379      9293.5778      11955.385     -3215.3239      912.4293      -904.82819     -17751.464     -26676.736     -45333.029      27           
     27200   296.49665     -26538.779      17731.683     -8807.0954      924.77703      1054.4524      1134.4967      585.38202      0.0054252566   0.00544        0.00063831579 -0.0073904419   0.0054252566   0.00063811216 -0.0074178865   11.275238     -3.9075447     -8.5514193     -5.1216135     -6.41179        7.4745577      64.891046      62.469915      54.312422      1              220168.34      1.2497878      9316.3112      11928.314     -3223.6908      875.36305     -967.75986     -17790.771     -26676.546     -45435.077      27.2         
     27400   297.73659     -26243.491      17805.837     -8437.6542      436.29359      319.33638      1135.9431     -146.3987       0.0054650394   0.00548        0.00050210997 -0.0071953811   0.0054650394   0.00050198396 -0.0072213927   21.613872     -1.9735142     -8.3494048      2.7326882     -1.4648019      1.4487302      64.893628      62.461412      54.323095      1              220190.39      1.2496626      9268.7837      11980.358     -2934.0387      881.46469     -981.48904     -17780.421     -26678.148     -45440.059      27.4         
     27600   300.0524      -26315.307      17944.332     -8370.9752      444.58307     -61.806592      666.9325       728.62331      0.0055048206   0.00552        0.0004361089  -0.006184944    0.0055048206   0.00043601383 -0.00620415     3.6084707     -8.7581707      3.6234778      2.2974393     -2.4208278      14.882909      64.89621       62.457292      54.378383      1              220408.72      1.2484248      9338.2468      11954.589     -3140.6551      889.15766     -901.56132     -17777.128     -26677.957     -45356.646      27.6         
[...]
    744000   300.49252     -26108.827      17970.652     -8138.1749     -101.07374     -1231.4635      59.50243       868.73986      0.13871792     0.1488        -0.054609454   -0.064790654    0.13871792    -0.056157161   -0.066984875    96.328768     -13.498567     -28.435032      0.57795042    -30.003396     -4.1338773      74.143493      59.020793      51.171666      1              223927.61      1.2288065      9185.1191      12024.594     -3091.5529      922.76757     -699.49156     -17775.303     -26674.96      -45149.755      744          
    744200   298.13921     -25959.25       17829.915     -8129.3348     -339.45014     -1707.4873      95.195462      593.94139      0.13875274     0.14884       -0.053108666   -0.063843631    0.13875274    -0.05457094    -0.065972755    133.23863     -1.3951378      11.94838       11.864093     -7.1551586     -16.494951      74.146075      59.114488      51.223484      1              224518.02      1.2255751      9162.4241      12061.401     -2934.7678      905.85657     -699.58379     -17778.721     -26675.859     -45154.164      744.2        
    744400   299.38946     -25946.512      17904.685     -8041.8269     -608.82935     -1782.2024      99.410253     -143.69586      0.13878755     0.14888       -0.052112398   -0.063932292    0.13878755    -0.053519347   -0.066067468    125.99018      6.106838      -3.8080817      10.021849     -5.7256311     -3.4556213      74.148657      59.176685      51.218633      1              224740.79      1.2243603      9131.3076      11987.853     -2763.7716      895.32871     -749.56324     -17771.835     -26675.831     -45197.23       744.4        
    744600   293.73487     -26021.044      17566.518     -8454.5261     -790.13307     -2147.2887      24.05902      -247.16951      0.13882237     0.14892       -0.051549001   -0.064618078    0.13882237    -0.052925153   -0.06680036     116.35286      7.8704428      12.951637      1.7827537     -0.34852392    -5.0359766      74.151238      59.211858      51.181109      1              224717.44      1.2244875      9045.9593      12013.222     -2835.8374      896.01152     -770.03143     -17695.54      -26674.828     -45140.4        744.6        
    744800   297.28847     -25925.803      17779.037     -8146.7654     -524.68679     -1007.8794      31.36598      -597.54697      0.13885719     0.14896       -0.05171613    -0.065305724    0.13885719    -0.05310138    -0.067535781    106.24113      1.7467127     -12.092262     -9.0450233     -8.2772296     -7.0453681      74.15382       59.201424      51.143483      1              224520.49      1.2255617      9247.7579      12198.34      -3093.8913      888.57765     -743.54208     -17746.455     -26676.59      -45166.587      744.8        
    745000   299.98864     -26006.979      17940.518     -8066.4613      172.87045     -252.72255     -606.47296      1377.8069      0.138892       0.149         -0.051830641   -0.065856812    0.138892      -0.053222144   -0.068125546    150.50982      15.742546      19.635057     -10.490806     -10.903793      4.1584977      74.156401      59.194275      51.113329      1              224368.83      1.2263901      9276.7955      12056.327     -3040.3522      897.95863     -774.6452      -17747.038     -26676.025     -45197.708      745          
    745200   298.78306     -26237.886      17868.42      -8369.466       619.39699     -359.71052      1185.757       1032.1445      0.13892681     0.14904       -0.052845296   -0.066098876    0.13892681    -0.054292837   -0.068384709    108.80306     -8.8902146     -13.355073      1.134093      -0.65217352     5.028913       74.158983      59.13093       51.100084      1              224078.45      1.2279793      9155.6644      11990.151     -3252.7909      914.79519     -639.8475      -17729.745     -26676.114     -45045.706      745.2        
    745400   296.77307     -26292.903      17748.214     -8544.6881     -696.9405      -1695.302      -791.29611      395.77665      0.13896162     0.14908       -0.052568066   -0.065418156    0.13896162    -0.054000182   -0.067656075    99.034648     -24.599669     -15.329959     -2.8643966     -7.9481672     -9.1622167      74.161565      59.148237      51.137331      1              224315.22      1.2266831      9056.3299      12113.279     -3207.7299      897.40986     -732.629       -17743.48      -26676.082     -45152.191      745.4        
    745600   299.9536      -25944.501      17938.422     -8006.0788     -477.93306     -808.38835     -1115.3338      489.92301      0.13899643     0.14912       -0.051664882   -0.063821836    0.13899643    -0.053047339   -0.065949474    124.78788      4.313595      -15.031724     -2.6914425     -9.6017512     -16.776735      74.164146      59.204623      51.224676      1              224920.4       1.2233826      9073.1902      12206.353     -2951.5183      895.99978     -738.36672     -17754.063     -26676.096     -45168.526      745.6        
    745800   298.62768     -25959.059      17859.128     -8099.9313     -875.33527     -1179.6288     -1043.2616     -403.11541      0.13903124     0.14916       -0.05108011    -0.062334199    0.13903124    -0.052430899   -0.064361683    136.48212      13.246629      11.88684      -3.2351035     -11.265295     -10.248497      74.166728      59.241131      51.306075      1              225424.57      1.2206465      9255.5125      12010.257     -2969.7518      871.47452     -700.64109     -17750.764     -26675.146     -45126.551      745.8        
    746000   297.1021      -26155.476      17767.892     -8387.5845      653.8869       498.62193      556.94144      906.09732      0.13906605     0.1492        -0.053081323   -0.061747487    0.13906605    -0.054542064   -0.063736162    113.44548      21.116828      18.385497      5.5300424      0.78357123    -8.7171733      74.169309      59.116195      51.338178      1              225097.75      1.2224187      9168.5398      12103.201     -3191.0384      897.54831     -674.33072     -17783.549     -26675.847     -45133.727      746          
    746200   299.27246     -25908.902      17897.688     -8011.2145     -242.48616     -1050.3775      308.94269      13.976283      0.13910085     0.14924       -0.056064171   -0.062847851    0.13910085    -0.057697093   -0.064909631    124.35338     -7.1092863      6.3932239      16.776216      2.45926       -6.3022844      74.171891      58.929975      51.27797       1              224133.32      1.2276787      9260.9321      12041.194     -3014.6299      911.34124     -679.0489      -17752.228     -26676.464     -45107.74       746.2        
    746400   301.03302     -25861.133      18002.976     -7858.1566      650.14888      690.5297       76.030654      1183.8863      0.13913566     0.14928       -0.056408534   -0.06378375     0.13913566    -0.058061975   -0.065908793    117.59796     -30.001423     -15.178694     -6.5386477     -11.455002     -5.1538014      74.174473      58.908477      51.22676       1              223835.6       1.2293116      9371.389       12007.897     -3049.2828      911.27007     -662.31238     -17765.185     -26674.909     -45102.406      746.4        
    746600   300.08277     -26161.742      17946.147     -8215.595      -129.9713      -893.78499     -361.91487      865.78595      0.13917046     0.14932       -0.055008486   -0.063663509    0.13917046    -0.056579331   -0.065780369    90.809001      1.6744049     -3.1879716     -5.012086      -6.9244643      1.8911259      74.177054      58.995882      51.23334       1              224204.3       1.22729        9139.4648      12070.388     -3060.9069      913.93066     -797.14809     -17752.799     -26674.672     -45224.619      746.6        
    746800   297.444       -26017.275      17788.338     -8228.9365     -803.96287     -1925.3999     -316.04113     -170.44763      0.13920527     0.14936       -0.05358382    -0.062435359    0.13920527    -0.05507287    -0.064469573    101.99459     -9.3515642     -6.1073283      8.1586889     -17.451174     -9.7039047      74.179636      59.084824      51.30054       1              224844.66      1.2237947      9112.0658      12011.031     -2898.4956      912.95165     -715.31682     -17762.941     -26676.571     -45154.828      746.8        
    747000   300.24406     -25842.328      17955.793     -7886.5345     -555.20662     -1214.7856     -1278.5862      827.75191      0.13924007     0.1494        -0.052854962   -0.062683773    0.13924007    -0.054303042   -0.064734565    127.77395      13.048086      26.139937      7.8638504      9.166637      -2.410947       74.182217      59.130327      51.286948      1              224966.03      1.2231345      9244.5818      11991.081     -2822.8892      912.15648     -749.94777     -17743.437     -26673.873     -45167.257      747          
    747200   297.44103     -26207.295      17788.161     -8419.1341      265.04099     -143.59712      921.29837      17.421719      0.13927487     0.14944       -0.05280024    -0.063955591    0.13927487    -0.054245268   -0.066092358    128.67695     -5.2940665     -4.7359297      3.6790316     -8.9636251     -14.862392      74.184799      59.133743      51.217358      1              224681.58      1.224683       9236.7543      11935.959     -3233.1125      883.19614     -616.47815     -17738.659     -26674.954     -45030.091      747.2        
    747400   299.01659     -26019.757      17882.386     -8137.3712     -113.38229     -1621.2914      317.934        963.21054      0.13930967     0.14948       -0.052540903   -0.064998983    0.13930967    -0.053971513   -0.067207663    137.86098      14.10475       11.924201      10.348808     -5.2782834     -17.769699      74.187381      59.149933      51.160267      1              224500.39      1.2256714      9184.1843      12052.84      -3083.4684      907.94646     -644.89347     -17760.549     -26675.817     -45081.259      747.4        
    747600   296.51421     -25819.183      17732.733     -8086.4499     -644.58473     -1968.16       -75.939914      110.34576      0.13934446     0.14952       -0.052146839   -0.065644326    0.13934446    -0.053555682   -0.067898106    104.81003     -8.5232293     -17.998667      3.7334662     -8.4011911      6.0138259      74.189962      59.174535      51.124956      1              224446.56      1.2259654      9099.7296      12010.176     -2662.7123      904.38137     -734.94659     -17760.372     -26675.438     -45170.758      747.6        
    747800   294.92807     -25980.174      17637.876     -8342.2984     -302.31906     -355.0866      -8.9994199     -542.87118      0.13937926     0.14956       -0.052146636   -0.06540678     0.13937926    -0.053555468   -0.067643903    156.54368      15.772916     -0.43814394    -0.91114744    -2.0350793     -15.790607      74.192544      59.174547      51.137953      1              224511.48      1.2256109      9321.5438      12096.741     -3147.4111      902.2122      -734.88192     -17743.197     -26675.181     -45153.26       747.8        
    748000   297.03396     -25631.374      17763.817     -7867.5572     -1263.745      -2820.8742     -762.00033     -208.36039      0.13941406     0.1496        -0.052830795   -0.064807276    0.13941406    -0.054277527   -0.067002649    146.10713     -5.5336759     -8.6369392     -12.760692     -7.9041578     -6.6412174      74.195125      59.131835      51.170756      1              224501.15      1.2256672      9327.1343      12282.818     -3014.996       907.6177      -734.56411     -17725.944     -26673.44      -45133.948      748          
    748200   297.03926     -25711.196      17764.133     -7947.0626     -847.46529     -1212.0333     -140.46532     -1189.8973      0.13944885     0.14964       -0.052423974   -0.06363193     0.13944885    -0.053848107   -0.065746643    121.42993     -5.1728719     -2.3886947      3.1718058     -1.1158863      1.1044038      74.197707      59.157233      51.235067      1              224887.67      1.2235606      9253.1641      12076.885     -2797.3422      938.05056     -743.47527     -17763.855     -26674.624     -45181.954      748.2        
    748400   297.29573     -25980.453      17779.471     -8200.9816      272.4658      -529.99379      406.80662      940.58456      0.13948364     0.14968       -0.051413109   -0.063018866    0.13948364    -0.052781885   -0.065092131    117.05652     -12.879268      15.133613      1.4883741     -12.011849     -3.2160373      74.200289      59.220341      51.268612      1              225282.82      1.2214145      9295.403       12107.591     -3050.6501      885.9846      -752.47099     -17791.029     -26675.281     -45218.782      748.4        
    748600   296.50999     -26123.796      17732.481     -8391.3155     -541.793       -1517.5981      267.90512     -375.68601      0.13951843     0.14972       -0.051287179   -0.06274286     0.13951843    -0.052649139   -0.064797605    153.30121      26.735202      10.481041      9.4818421      10.673174     -5.2315017      74.20287       59.228203      51.283715      1              225386.93      1.2208503      9190.9143      11980.831     -2953.9834      903.28834     -798.76273     -17768.952     -26677.132     -45244.847      748.6        
    748800   293.94876     -26013.158      17579.309     -8433.849      -950.93839     -1840.9156     -644.72004     -367.17952      0.13955322     0.14976       -0.052441566   -0.065012041    0.13955322    -0.053866672   -0.067221628    109.95283     -1.9489521      1.3494663     -5.4016815     -10.209951     -0.062286705    74.205452      59.156135      51.159552      1              224575.48      1.2252616      9243.377       11927.495     -2943.9866      901.61435     -695.32886     -17771.62      -26674.709     -45141.658      748.8        
    749000   299.69211     -26111.623      17922.784     -8188.8388     -178.73609     -1432.9971     -148.41628      1045.2051      0.13958801     0.1498        -0.05288609    -0.066146211    0.13958801    -0.054335907   -0.068435396    121.39601     -15.181304     -16.586659      9.0894998     -4.6953234     -1.1744102      74.208033      59.128383      51.097494      1              224205.64      1.2272827      9221.2773      12039.085     -3002.9497      883.86333     -799.90714     -17776.264     -26676.728     -45252.899      749          
    749200   298.61246     -26074.161      17858.217     -8215.944      -51.292341     -1594.4281      338.10731      1102.4438      0.1396228      0.14984       -0.053588465   -0.065879637    0.1396228     -0.055077778   -0.068149981    137.01039      13.63352      -3.3007188     -5.5340852     -8.6763193     -9.4015432      74.210615      59.084534      51.11208       1              224111.12      1.2278003      9153.5441      12142.903     -3041.6411      892.94867     -787.2784      -17758.154     -26676.483     -45221.916      749.2        
    749400   296.21391     -26090.012      17714.774     -8375.2382     -546.04652     -2134.2584     -87.277699      583.3965       0.13965759     0.14988       -0.054284553   -0.066175303    0.13965759    -0.055813551   -0.068466549    132.44278     -2.2464284      11.262812      8.3037639     -5.613712       3.9011749      74.213197      59.041077      51.095902      1              223883.19      1.2290503      9232.4325      11958.981     -2952.3978      904.64834     -770.58703     -17786.938     -26676.152     -45233.677      749.4        
    749600   298.24291     -25863.755      17836.117     -8027.6389     -325.21168     -1506.2946     -630.42811      1161.0877      0.13969237     0.14992       -0.055808354   -0.066659562    0.13969237    -0.057426118   -0.068985259    88.657942      2.3574747      1.3127983     -9.5270843     -14.423026     -20.760621      74.215778      58.945946      51.069405      1              223414.31      1.2316297      9392.5886      12032.221     -3004.1886      925.39333     -786.05484     -17748.619     -26675.096     -45209.77       749.6        
    749800   298.77387     -26066.199      17867.87      -8198.3285      122.53738     -371.78655     -46.834877      786.23358      0.13972716     0.14996       -0.055723591   -0.066698001    0.13972716    -0.05733635    -0.069026444    101.36068     -28.021442     -26.625109     -2.7192625     -1.256842      -11.981678      74.21836       58.951238      51.067302      1              223432.94      1.231527       9364.1084      11985.857     -3088.6876      896.49488     -814.88105     -17732.716     -26676.374     -45223.971      749.8        
    750000   295.37672     -25718.413      17664.707     -8053.7055     -1271.2562     -1157.0582     -1258.2902     -1398.4203      0.13976194     0.15          -0.054177468   -0.065505237    0.13976194    -0.055700326   -0.067749256    100.68491     -2.9322208     -14.511133      1.7495114      7.8061188      6.6839414      74.220941      59.047762      51.132566      1              224092.59      1.2279019      9171.8426      12032.693     -2667.0945      931.98628     -774.6442      -17737.592     -26675.604     -45187.84       750          
Loop time of 16442.4 on 16 procs for 750000 steps with 20064 atoms

Performance: 3.941 ns/day, 6.090 hours/ns, 45.614 timesteps/s, 915.194 katom-step/s
98.7% CPU use with 16 MPI tasks x no OpenMP threads

MPI task timing breakdown:
Section |  min time  |  avg time  |  max time  |%varavg| %total
---------------------------------------------------------------
Pair    | 9663.6     | 10412      | 11173      | 434.3 | 63.33
Bond    | 2803.6     | 2915.9     | 3019       | 100.3 | 17.73
Kspace  | 844.46     | 1644.6     | 2503.5     |1203.3 | 10.00
Neigh   | 754.18     | 754.5      | 754.8      |   0.6 |  4.59
Comm    | 193.29     | 197.06     | 200.75     |  19.0 |  1.20
Output  | 92.027     | 92.036     | 92.113     |   0.2 |  0.56
Modify  | 275.44     | 364.37     | 402.69     | 264.1 |  2.22
Other   |            | 61.6       |            |       |  0.37

Nlocal:           1254 ave        1311 max        1196 min
Histogram: 1 1 2 1 2 3 2 2 1 1
Nghost:        11563.6 ave       11651 max       11464 min
Histogram: 1 2 0 1 3 3 2 1 1 2
Neighs:         644983 ave      708635 max      589880 min
Histogram: 3 0 2 1 2 2 3 2 0 1

Total # of neighbors = 10319733
Ave neighs/atom = 514.34076
Ave special neighs/atom = 5.8041268
Neighbor list builds = 28980
Dangerous builds = 0

#-------------------Wrap up-------------------
write_restart  ${myid}.restart
write_restart  tensile_1_AroCy_L10_pxld_97_replicate_1_FF_PCFF-class2xe.restart
System init for write_restart ...
PPPM initialization ...
  using 12-bit tables for long-range coulomb (../kspace.cpp:342)
  G vector (1/distance) = 0.18117013
  grid = 18 15 15
  stencil order = 5
  estimated absolute RMS force accuracy = 0.028184661
  estimated relative force accuracy = 8.4877269e-05
  using double precision KISS FFT
  3d grid and FFT values/proc = 1690 320
Generated 45 of 45 mixed pair_coeff terms from sixthpower/sixthpower mixing rule
write_data     ${myid}.data
write_data     tensile_1_AroCy_L10_pxld_97_replicate_1_FF_PCFF-class2xe.data
System init for write_data ...
PPPM initialization ...
  using 12-bit tables for long-range coulomb (../kspace.cpp:342)
  G vector (1/distance) = 0.18117013
  grid = 18 15 15
  stencil order = 5
  estimated absolute RMS force accuracy = 0.028184661
  estimated relative force accuracy = 8.4877269e-05
  using double precision KISS FFT
  3d grid and FFT values/proc = 1690 320
Generated 45 of 45 mixed pair_coeff terms from sixthpower/sixthpower mixing rule
Total wall time: 4:34:03
