thermo_style   custom step temp pe ke etotal press pxx pyy pzz v_etrue v_eengx v_eengy v_eengz v_etruex v_etruey v_etruez                f_sxx_ave f_syy_ave f_szz_ave f_sxy_ave f_sxz_ave f_syz_ave lx ly lz v_dir vol density ebond eangle edihed                eimp evdwl ecoul elong epair v_Time

restart        ${nsteps} rst1.a.${myid} rst2.a.${myid}
restart        200 rst1.a.${myid} rst2.a.${myid}
restart        200 rst1.a.tensile_1_EPON_862_pxld_86.8_replicate_4_FF_PCFF rst2.a.${myid}
restart        200 rst1.a.tensile_1_EPON_862_pxld_86.8_replicate_4_FF_PCFF rst2.a.tensile_1_EPON_862_pxld_86.8_replicate_4_FF_PCFF
dump           6 all atom 10000 dump.${myid} #every picosecond
dump           6 all atom 10000 dump.tensile_1_EPON_862_pxld_86.8_replicate_4_FF_PCFF 
dump_modify    6 scale no sort id

#-------------------Run-------------------
run            ${steps}
run            750000

CITE-CITE-CITE-CITE-CITE-CITE-CITE-CITE-CITE-CITE-CITE-CITE-CITE

Your simulation uses code contributions which should be cited:

- Type Label Framework: https://doi.org/10.1021/acs.jpcb.3c08419

@Article{Gissinger24,
 author = {Jacob R. Gissinger, Ilia Nikiforov, Yaser Afshar, Brendon Waters, Moon-ki Choi, Daniel S. Karls, Alexander Stukowski, Wonpil Im, Hendrik Heinz, Axel Kohlmeyer, and Ellad B. Tadmor},
 title = {Type Label Framework for Bonded Force Fields in LAMMPS},
 journal = {J. Phys. Chem. B},
 year =    2024,
 volume =  128,
 number =  13,
 pages =   {3282–-3297}
}

CITE-CITE-CITE-CITE-CITE-CITE-CITE-CITE-CITE-CITE-CITE-CITE-CITE

PPPM initialization ...
  using 12-bit tables for long-range coulomb (../kspace.cpp:342)
  G vector (1/distance) = 0.17970628
  grid = 15 15 15
  stencil order = 5
  estimated absolute RMS force accuracy = 0.023498084
  estimated relative force accuracy = 7.0763783e-05
  using double precision KISS FFT
  3d grid and FFT values/proc = 1521 256
Generated 66 of 66 mixed pair_coeff terms from sixthpower/sixthpower mixing rule
Neighbor list info ...
  update: every = 1 steps, delay = 0 steps, check = yes
  max neighbors/atom: 5000, page size: 100000
  master list distance cutoff = 14
  ghost atom cutoff = 14
  binsize = 7, bins = 9 8 9
  1 neighbor lists, perpetual/occasional/extra = 1 0 0
  (1) pair lj/class2/coul/long, perpetual
      attributes: half, newton on
      pair build: half/bin/newton
      stencil: half/bin/3d
      bin: standard
WARNING: Inconsistent image flags (../domain.cpp:1051)
Per MPI rank memory allocation (min/avg/max) = 19.44 | 19.45 | 19.45 Mbytes
   Step          Temp          PotEng         KinEng         TotEng         Press           Pxx            Pyy            Pzz          v_etrue        v_eengx        v_eengy        v_eengz        v_etruex       v_etruey       v_etruez      f_sxx_ave      f_syy_ave      f_szz_ave      f_sxy_ave      f_sxz_ave      f_syz_ave          Lx             Ly             Lz           v_dir          Volume        Density         E_bond        E_angle        E_dihed        E_impro         E_vdwl         E_coul         E_long         E_pair         v_Time    
         0   298            37550.924      18706.318      56257.242     -694.12392     -174.42268     -842.92193     -1065.0271      0              2.3794876e-16 -7.9491179e-16 -1.1452883e-16  2.220446e-16  -7.7715612e-16 -1.110223e-16   0              0              0              0              0              0              59.722331      53.631818      62.040513      1              198716.83      1.2078466      12487.735      22057.782     -2673.4442      390.01866      285.18513      24694.364     -19690.715      5288.8336      0            
       200   299.0916       37858.379      18774.841      56633.219     -684.06867      66.05229      -996.23613     -1122.0222      3.99992e-05    4e-05          0.00052280451 -0.00058581968  3.99992e-05    0.00052266789 -0.00058599134 -7.7750164     -14.184099      14.044096      16.461749     -12.936452      17.828658      59.72472       53.659857      62.004169      1              198712.19      1.2078747      12672.547      22198.88      -2661.6853      393.44165      262.46823      24684.139     -19691.411      5255.1961      0.2          
       400   297.90336      37904.151      18700.251      56604.403      63.551858      476.93672      34.539879     -320.82103      7.99968e-05    8e-05          0.0023691197  -0.0030564816   7.99968e-05    0.0023663178  -0.0030611621   0.68780218    -5.3923112      12.019312      1.9484391     -17.189056     -0.76062449     59.727109      53.758878      61.850887      1              198594.69      1.2085894      12695.798      22232.526     -2825.3119      396.0234       360.65669      24734.774     -19690.315      5405.1157      0.4          
       600   294.3231       37820.151      18475.508      56295.659     -160.88611     -178.11551     -504.28359      199.74076      0.0001199928   0.00012        0.0037515977  -0.0057310205   0.0001199928   0.003744578   -0.0057475058   17.928542      10.903033     -5.325482       6.4918781     -29.094568      1.6528751      59.729498      53.833023      61.684958      1              198343.01      1.210123       12598.687      22172.875     -2641.8451      403.23819      277.37793      24699.88      -19690.062      5287.1958      0.6          
       800   296.28277      38001.295      18598.523      56599.817      513.57974      130.91781      401.46991      1008.3515      0.0001599872   0.00016        0.0040485083  -0.0067950455   0.0001599872   0.0040403351  -0.006818237    6.4872668      0.36085994    -20.610682      13.200498     -16.549298     -2.0390826      59.731887      53.848947      61.618945      1              198197.28      1.2110128      12441.369      22293.608     -2588.0477      402.75791      398.54318      24744.36      -19691.296      5451.6072      0.8          
      1000   297.07791      37971.955      18648.436      56620.391     -263.43788     -273.39019      120.69174     -637.61517      0.00019998     0.0002         0.0036572569  -0.0057121604   0.00019998     0.0036505854  -0.0057285372   1.0609432      15.92279      -15.848477      2.1015009     -25.386023     -0.22136293     59.734275      53.827963      61.686128      1              198343.99      1.210117       12479.494      22175.49      -2552.0183      418.4444       437.42299      24706.106     -19692.983      5450.5453      1            
      1200   297.32767      37668.065      18664.114      56332.179      285.90265      651.1415      -394.40354      600.96999      0.0002399712   0.00024        0.0027580873  -0.0040449322   0.0002399712   0.0027542907  -0.004053135    12.246959      12.045826      8.4839828      8.8324342     -17.216285     -0.70768798     59.736664      53.779739      61.789563      1              198506.52      1.2091262      12539.185      22143.452     -2715.7991      413.2215       329.54881      24649.27      -19690.813      5288.0055      1.2          
      1400   298.93165      37786.687      18764.8        56551.487     -378.81225     -743.09348     -326.25756     -67.085715      0.00027996081  0.00028        0.00045502477 -0.0033447309   0.00027996081  0.00045492128 -0.0033503371   3.1000416      13.672464     -5.1749884      3.8013041     -23.459496      5.0207432      59.739053      53.656221      61.833004      1              198197.77      1.2110098      12593.576      22219.739     -2737.5901      423.21216      311.58         24670.855     -19694.685      5287.7502      1.4          
      1600   297.91946      37876.629      18701.262      56577.891     -1096.2921     -1390.5143     -1076.3233     -822.03882      0.00031994881  0.00032       -0.0010052732  -0.0021201212   0.00031994881 -0.0010057788  -0.0021223718   21.142366     -10.115462     -9.3739697      10.09195      -14.598637      3.2415316      59.741442      53.577903      61.90898       1              198159.57      1.2112432      12578.011      22054.834     -2547.7815      405.3799       357.9169       24720.325     -19692.056      5386.1853      1.6          
      1800   296.40455      37709.642      18606.167      56315.809      113.94052      440.25981      323.40087     -421.83911      0.00035993522  0.00036       -0.0018353675  -0.00060840714  0.00035993522 -0.0018370539  -0.00060859229 -17.917381      0.091223847   -11.629753     -10.672716     -14.250838      8.9724633      59.743831      53.533384      62.002767      1              198302.79      1.2103684      12557.034      22058.452     -2587.3131      404.66133      240.70519      24733.309     -19697.207      5276.8074      1.8          
      2000   298.52198      37986.433      18739.084      56725.517      639.60854      766.16714      525.6689       626.98957      0.00039992002  0.0004        -0.0030379063  -6.1154405e-05  0.00039992002 -0.0030425301  -6.1156275e-05 -9.0057262     -0.92569225     12.261122     -7.1457791     -13.975782      8.558468       59.74622       53.468889      62.036719      1              198180.27      1.2111167      12597.158      22206.702     -2687.7402      407.55041      381.30441      24769.302     -19687.844      5462.7626      2            
      2200   296.91206      37781.516      18638.025      56419.54      -299.00208     -776.53255      1067.336      -1187.8097      0.00043990323  0.00044       -0.0028707517   0.00052719202  0.00043990323 -0.0028748802   0.0005270531  -6.335664      -10.206077     -3.0620821     -3.6695443     -8.812642       3.9636891      59.748609      53.477854      62.07322       1              198338.05      1.2101532      12593.307      21914.309     -2526.6688      419.47325      385.77495      24684.47      -19689.15       5381.0951      2.2          
      2400   297.82005      37859.627      18695.022      56554.649      563.0395       1036.5079     -252.30806      904.91869      0.00047988484  0.00048       -0.0023829825   0.0010754802   0.00047988484 -0.0023858263   0.0010749023   2.5133243      10.441974     -6.4533034     -9.2242188     -20.463         15.202252      59.750998      53.504014      62.107236      1              198551.76      1.2088508      12588.345      22227.397     -2782.6046      415.32838      388.31533      24713.847     -19691.002      5411.1605      2.4          
      2600   300.82575      37956.858      18883.699      56840.556     -1028.7712     -1615.1274      147.16631     -1618.3526      0.00051986485  0.00052       -0.0017837483   0.0017668542   0.00051986485 -0.0017853411   0.0017652951  -17.74391      -21.554073      15.64171       8.4309356     -15.322211      9.8067646      59.753387      53.536152      62.15013       1              198816.18      1.207243       12544.336      22241.934     -2623.4077      414.71122      311.50735      24759.332     -19691.555      5379.2842      2.6          
      2800   297.84263      37888.176      18696.439      56584.615     -512.53121     -993.44881     -149.17235     -394.97246      0.00055984326  0.00056       -0.00068172149  0.0013862389   0.00055984326 -0.00068195397  0.001385279   -0.17293668    -2.1685462     -6.2174488      1.6781476     -7.0948184      6.6367368      59.755775      53.595256      62.126516      1              198968         1.2063218      12459.481      22189.088     -2546.5999      398.64751      381.21666      24694.765     -19688.422      5387.5601      2.8          
      3000   295.46403      37978.433      18547.128      56525.561     -864.56202     -1570.1129     -65.964035     -957.60912      0.00059982007  0.0006        -9.8520019e-05  0.001629227    0.00059982007 -9.8524872e-05  0.0016279012  -6.0844728      11.411488      2.9746306      10.044704     -24.100807     -3.9113114      59.758164      53.626534      62.141591      1              199140.39      1.2052776      12577.205      22159.428     -2599.9756      411.18827      350.48678      24769.658     -19689.558      5430.5873      3            
      3200   298.80753      38026.017      18757.009      56783.026     -198.83476     -631.22347      697.17126     -662.45206      0.00063979529  0.00064       -0.0013477558  -0.00037971633  0.00063979529 -0.0013486648  -0.00037978844  5.5938648      20.54124       33.708829     -0.75934449    -26.892103     -0.94233515     59.760553      53.559535      62.016955      1              198500.61      1.2091622      12644.228      22244.078     -2615.0586      404.23005      315.99632      24722.524     -19689.98       5348.5399      3.2          
      3400   297.28355      37768.901      18661.344      56430.246      536.10366     -625.85458      708.58403      1525.5815      0.0006797689   0.00068       -0.0024562847  -0.0034505212   0.0006797689  -0.0024593063  -0.003456488   -14.360152     -4.3050658     -15.886658     -8.7272943     -37.02134       10.104165      59.762942      53.500083      61.826441      1              197679.06      1.2141875      12560.686      22126.41      -2719.2611      409.81638      391.3861       24693.722     -19693.858      5391.2494      3.4          
      3600   298.96488      37706.762      18766.886      56473.648      962.85959      971.94946      933.63839      982.99091      0.00071974092  0.00072       -0.002122194   -0.0039529955   0.00071974092 -0.0021244491  -0.0039608293  -24.541711     -24.110291     -11.809851      6.8491745     -22.209826     -4.7916195      59.765331      53.518001      61.795267      1              197653.46      1.2143447      12584.721      21891.962     -2643.6284      394.85737      408.75425      24762.799     -19692.703      5478.85        3.6          
      3800   298.20733      38092.255      18719.333      56811.588      567.4743       885.46015      238.13804      578.82471      0.00075971135  0.00076       -0.00017412288 -0.0035786641   0.00075971135 -0.00017413804 -0.0035850828  -17.043276     -7.8418602     -9.7448297     -0.73720273    -13.246137      3.951475       59.76772       53.622479      61.818491      1              198121.67      1.211475       12927.688      22127.173     -2794.6818      405.67677      411.84326      24708.488     -19693.931      5426.4         3.8          
      4000   296.3238       37971.852      18601.098      56572.949      533.34055      671.59775     -172.22284      1100.6468      0.00079968017  0.0008         0.0020937661  -0.0023509406   0.00079968017  0.0020915773  -0.0023537084  -2.384977      -2.8588581     -0.090087036   -6.5955804     -19.781586      11.934483      59.770109      53.74411       61.894659      1              198823.68      1.2071975      12753.772      22118.263     -2800.7449      408.81543      391.74473      24787.604     -19687.602      5491.7468      4            
      4200   297.11113      37829.851      18650.521      56480.372     -467.62897     -988.60361     -242.61169     -171.67162      0.0008396474   0.00084        0.0035868756  -0.0027259156   0.0008396474   0.0035804581  -0.0027296377   3.5122672      14.068828      21.550891     -4.9546044     -19.847885      2.8277908      59.772498      53.824188      61.871396      1              199053.04      1.2058065      12516.137      22165.838     -2626.9864      416.08996      341.42178      24708.133     -19690.782      5358.7722      4.2          
      4400   299.92485      37902.36       18827.146      56729.507      113.27838      820.89306     -625.60243      144.54451      0.00087961303  0.00088        0.0039346466  -0.0050125208   0.00087961303  0.0039269261  -0.0050251256  -12.178977      8.0907527      3.4666592      2.1267166     -27.922129     -0.18319316     59.774887      53.84284       61.729534      1              198673.4       1.2081106      12604.655      22039.894     -2601.534       409.75478      384.27508      24753.586     -19688.27       5449.5907      4.4          
      4600   302.13129      37889.718      18965.651      56855.37      -170.88752     -492.97466      4.2084069     -23.896294      0.00091957706  0.00092        0.0026050988  -0.005623624    0.00091957706  0.0026017114  -0.0056394961  -19.365997      7.8787394     -15.747911      10.920152     -11.852338      5.7635147      59.777276      53.771534      61.691621      1              198296.35      1.2104078      12569.68       22224.662     -2756.6794      409.37793      392.64839      24737.93      -19687.9        5442.6781      4.6          
      4800   297.16589      37887.711      18653.958      56541.669     -574.71693     -846.74356      26.828979     -904.23621      0.00095953949  0.00096        0.00073628112 -0.0042458376   0.00095953949  0.0007360102  -0.0042548767  -8.6973975      14.186758     -10.254599      10.91407      -12.97626      -5.0041088      59.779664      53.671306      61.777099      1              198208.9       1.2109418      12660.246      22173.518     -2630.8599      416.03795      275.28021      24681.788     -19688.299      5268.7691      4.8          
      5000   298.07346      37698.727      18710.929      56409.656      703.25743      1304.3154      1548.7627     -743.30576      0.00099950033  0.001         -0.00088235952 -0.0036594902   0.00099950033 -0.00088274903 -0.0036662025  -3.3939067     -17.520076      6.6899732      3.2036148     -19.063176      4.181988       59.782053      53.584495      61.813476      1              198012.74      1.2121414      12541.046      22054.007     -2641.1999      419.63871      293.77036      24721.725     -19690.259      5325.2356      5            
      5200   298.68062      37971.177      18749.042      56720.219     -790.50305     -1248.0043     -748.11112     -375.39368      0.0010394596   0.00104       -0.00083594973 -0.0033968179   0.0010394596  -0.00083629933 -0.0034026002  -9.2667544     -3.2063458     -14.050724     -15.232868     -6.7968501      26.699674      59.784442      53.586984      61.829773      1              198082.06      1.2117172      12635.851      22229.677     -2531.5641      394.56825      208.0382       24729.552     -19694.945      5242.6448      5.2          
      5400   296.51651      37882.552      18613.195      56495.746     -587.60301     -731.55592     -526.95042     -504.3027       0.0010794172   0.00108       -0.00096214702 -0.0026218167   0.0010794172  -0.00096261018 -0.0026252597   14.930678      9.7309328      4.9333757      13.831581      1.9578013      11.489251      59.786831      53.580216      61.877854      1              198218.98      1.2108802      12605.562      21983.647     -2412.1574      409.39791      259.86111      24725.861     -19689.62       5296.1021      5.4          
      5600   298.20108      37796.252      18718.94       56515.192     -292.7377       250.21333     -956.2919      -172.13452      0.0011193733   0.00112       -0.0013041076  -0.0016912808   0.0011193733  -0.0013049587  -0.0016927126   2.1927221      9.2381938     -0.20207343    -2.2427016     -11.234169     -6.0269055      59.78922       53.561876      61.935585      1              198343.93      1.2101174      12494.796      22175.558     -2565.9733      408.75069      268.29718      24706.669     -19691.846      5283.12        5.6          
      5800   300.22684      37873.281      18846.103      56719.385     -79.518599     -170.66328     -189.02731      121.1348       0.0011593277   0.00116       -0.0026405188  -0.00066009057  0.0011593277  -0.0026440111  -0.00066030852 -14.083311      4.6787227     -7.5788374      10.742302     -17.507096      1.1518895      59.791609      53.490202      61.999561      1              198291.04      1.2104402      12592.474      22247.606     -2794.3281      406.72292      404.77186      24708.414     -19692.379      5420.8071      5.8          
      6000   297.27318      37830.954      18660.693      56491.647      245.80346      464.905        200.41733      72.088042      0.0011992806   0.0012        -0.0037397389   0.00062881508  0.0011992806  -0.0037467492   0.00062861746 -24.099644     -34.536413      8.4835001     -1.513067      -25.539991     -9.2947582      59.793998      53.431249      62.079525      1              198335.89      1.2101665      12626.999      22138.294     -2759.7422      425.9121       388.22115      24702.071     -19690.801      5399.4909      6            
      6200   297.1598       37754.643      18653.576      56408.219      258.10008      251.13078      786.5699      -263.40045      0.0012392318   0.00124       -0.0028394623   0.0011321446   0.0012392318  -0.0028435012   0.0011315042   8.5767059     -12.865405     -4.5635745      0.00069495715 -21.210254      0.059601633    59.796387      53.479532      62.110752      1              198622.9       1.2084177      12538.478      21990.962     -2667.4644      417.3265       454.43606      24708.23      -19687.324      5475.3415      6.2          
      6400   300.73253      37934.153      18877.847      56812         -581.40599     -380.82758     -562.43367     -800.95671      0.0012791815   0.00128       -0.00094612601  0.00139302     0.0012791815  -0.00094657387  0.0013920507   3.4882257      3.8292242      26.756187     -19.375695     -15.004483     -1.4188696      59.798776      53.581075      62.126937      1              199059.84      1.2057652      12644.993      22089.493     -2610.8526      415.9143       374.92274      24709.968     -19690.285      5394.6056      6.4          
      6600   299.13449      37885.618      18777.533      56663.151      74.004157      391.17133     -22.909333     -146.24953      0.0013191296   0.00132        0.00043863663  0.00022346282  0.0013191296   0.00043854045  0.00022343786 -4.7898295      32.925809      7.4014751     -2.830588       1.8240343      1.7668167      59.801164      53.655343      62.054377      1              199110.9       1.2054561      12629.135      22152.758     -2537.2094      411.56827      240.42068      24681.693     -19692.748      5229.3654      6.6          
      6800   296.99895      37839.54       18643.479      56483.019     -659.96877     -54.543646     -1657.6498     -267.7129       0.001359076    0.00136       -0.00046044851 -0.0019620514   0.001359076   -0.00046055454 -0.0019639788  -6.8001833      1.9449509     -5.7760301     -10.175157     -15.630818      7.1018123      59.803553      53.607123      61.918786      1              198505.22      1.2091342      12497.303      22077.855     -2591.8288      422.71983      427.03774      24699.748     -19693.294      5433.4912      6.8          
      7000   295.33307      37593.217      18538.907      56132.124     -506.03468     -362.23115     -689.93943     -465.93347      0.0013990209   0.0014        -0.0014120337  -0.0040099359   0.0013990209  -0.0014130316  -0.0040179973  -9.8142516     -22.751026     -13.374689     -9.6442845     -22.816676      8.3770274      59.805942      53.556088      61.791735      1              197917.21      1.2127264      12488.768      22011.323     -2620.4001      407.33572      383.83581      24614.071     -19691.716      5306.1906      7            
      7200   298.05487      37740.692      18709.762      56450.454     -454.79705     -644.24275     -574.20215     -145.94625      0.0014389642   0.00144        0.00079314    -0.0050601242   0.0014389642   0.00079282563 -0.00507297    -1.9613686     -21.928137     -23.266564     -24.520141     -7.8037325     -5.7447919      59.808331      53.674355      61.72658       1              198153.04      1.2112832      12505.956      22201.056     -2634.7522      394.44035      297.56759      24666.261     -19689.837      5273.9915      7.2          
      7400   299.33938      37816.488      18790.395      56606.883     -189.05188     -665.6532      -874.22582      972.72337      0.0014789059   0.00148        0.0033196105  -0.0046625963   0.0014789059   0.0033141127  -0.0046735001  -2.597261       30.282693     -7.5048865      6.5146356     -2.5156811      6.8344414      59.81072       53.809854      61.751243      1              198740.58      1.2077022      12593.626      22068.055     -2676.5561      410.47814      409.59704      24702.372     -19691.084      5420.8849      7.4          
      7600   298.47531      37814.474      18736.155      56550.629     -86.523884      214.86948     -217.40316     -257.03797      0.001518846    0.00152        0.004233287   -0.0026448907   0.001518846    0.0042243518  -0.0026483946   31.540892      39.517493     -14.938047      8.1094177     -16.5216       -6.3668393      59.813109      53.858857      61.876423      1              199332.77      1.2041143      12452.111      22252.112     -2685.0217      404.80957      425.6375       24657.398     -19692.572      5390.4629      7.6          
      7800   295.5677       37811.976      18553.635      56365.611      107.40049     -189.10638      744.5253      -233.21746      0.0015587845   0.00156        0.0027457059   0.00027387987  0.0015587845   0.0027419434   0.00027384238  27.775025      8.0328202      2.6786007     -2.3298977     -14.667936      20.75827       59.815498      53.779075      62.057505      1              199627.95      1.2023338      12596.011      22121.342     -2669.2953      403.36914      312.83361      24738.543     -19690.828      5360.5492      7.8          
      8000   299.23385      37955.948      18783.77       56739.718      94.282764     -120.48923      370.17284      33.164681      0.0015987214   0.0016        -0.00060939546  0.0020456569   0.0015987214  -0.00060958122  0.0020435674   19.73661       25.327692      43.140536     -7.7422081     -19.825216      7.8055357      59.817887      53.599135      62.167427      1              199320.39      1.2041891      12710.973      22155.074     -2730.4404      404.36593      347.57283      24759.738     -19691.335      5415.9757      8            
      8200   299.83335      37696.935      18821.403      56518.338      491.34046      430.94486      233.84862      809.2279       0.0016386567   0.00164       -0.0043646323   0.00096176658  0.0016386567  -0.0043741851   0.00096130438 -3.4187314     -11.195465     -10.353732      7.9480859     -13.665393      12.303472      59.820276      53.397734      62.100182      1              198364.57      1.2099915      12491.802      22260.854     -2858.3751      393.18402      392.97077      24705.688     -19689.189      5409.4699      8.2          
      8400   298.48052      37713.892      18736.482      56450.374     -527.18573      54.589018     -894.59222     -741.55399      0.0016785904   0.00168       -0.0054166076   0.0011045057   0.0016785904  -0.0054313306   0.0011038962  -13.775107     -27.360253     -8.207588      -2.5232223     -9.4116401     -2.9838037      59.822665      53.341315      62.109037      1              198191.15      1.2110502      12645.686      21958.693     -2667.6845      395.34796      366.04709      24706.309     -19690.507      5381.8492      8.4          
      8600   299.91486      37878.729      18826.519      56705.248     -1.485571      -321.53953      299.90785      17.174974      0.0017185225   0.00172       -0.0043336127   0.001050886    0.0017185225  -0.00434303     0.0010503342  -3.3878128     -8.1339219      20.05808       8.021019      -27.87261       12.01743       59.825053      53.399398      62.105711      1              198404.26      1.2097494      12576.214      22196.109     -2586.2602      399.27414      288.48678      24695.715     -19690.809      5293.3926      8.6          
      8800   298.93222      37991.666      18764.836      56756.502      705.63737      674.17597     -139.50014      1582.2363      0.001758453    0.00176       -0.0032889576  -0.00027561825  0.001758453   -0.0032943781  -0.00027565624 -23.801088     -12.453623     -7.644718       9.0479579     -19.772573      1.2221366      59.827442      53.455425      62.023414      1              198357.16      1.2100367      12667.636      22158.975     -2671.4339      413.40279      394.07598      24721.321     -19692.312      5423.0854      8.8          
      9000   298.1084       37727.816      18713.122      56440.939      385.97674     -201.38083      1866.1747     -506.86365      0.0017983819   0.0018        -0.0020324259  -0.0016645019   0.0017983819  -0.0020344941  -0.0016658887   5.3323253      9.6449523      26.488669      9.6937689     -20.531614      10.486025      59.829831      53.522815      61.937247      1              198339.23      1.2101461      12526.713      22191.897     -2685.9938      395.27131      273.05398      24719.153     -19692.279      5299.9284      9            
      9200   295.52074      37838.104      18550.687      56388.791      48.837804     -751.22948      234.6635       663.07939      0.0018383093   0.00184       -0.00099820492 -0.0048110856   0.0018383093  -0.00099870346 -0.0048226961   16.958367      0.31983645     8.0686722     -7.1957948     -32.352106      20.957935      59.83222       53.578282      61.742031      1              197926.9       1.2126671      12593.778      22182.668     -2768.0804      393.8838       465.96697      24663.283     -19693.396      5435.8543      9.2          
      9400   297.99583      38014.919      18706.056      56720.975      178.01989      243.87002      677.21309     -387.02343      0.001878235    0.00188        0.001174064   -0.0055850363   0.001878235    0.0011733753  -0.005600691   -7.0507015     -43.489079     -34.687594     -2.3466196     -5.1529114      0.28178574     59.834609      53.694785      61.694015      1              198210.93      1.2109294      12550.869      22301.858     -2659.9329      417.62079      399.28453      24695.425     -19690.206      5404.503       9.4          
      9600   298.06704      37701.802      18710.526      56412.328      43.752686      145.07545      518.32214     -532.13953      0.0019181592   0.00192        0.0042811941  -0.0046862793   0.0019181592   0.0042720559  -0.0046972944   20.094437      21.334909     -7.0978563      10.385162     -29.694874      4.0886037      59.836998      53.861426      61.749774      1              199013.72      1.2060447      12662.872      22199.903     -2838.5978      384.66111      238.32608      24743.684     -19689.047      5292.9634      9.6          
      9800   298.38862      37716.242      18730.713      56446.955      367.8613       174.04041      619.89845      309.64503      0.0019580817   0.00196        0.0034832437  -0.0048777616   0.0019580817   0.0034771913  -0.0048896967   39.399284      38.027204      24.956301      2.724306       2.5959619      4.1697233      59.839387      53.81863       61.737894      1              198825.27      1.2071878      12505.573      22174.41      -2685.1627      406.78317      296.87937      24707.811     -19690.052      5314.6383      9.8          
     10000   297.5086       38021.921      18675.471      56697.393      100.69437      144.1214       180.86731     -22.905616      0.0019980027   0.002          0.0018372335  -0.0057245141   0.0019980027   0.0018355479  -0.0057409619   6.4809911     -1.6391385     -15.629411      13.963873     -1.4354985     -0.0060937417   59.841776      53.730352      61.685361      1              198338.15      1.2101526      12664.427      22124.98      -2555.2839      405.00006      318.27277      24751.009     -19686.483      5382.7983      10           
     10200   296.42728      37682.662      18607.594      56290.256      606.7019       626.25018      604.99656      588.85895      0.002037922    0.00204        0.00054852739 -0.0044421126   0.002037922    0.00054837701 -0.0044520081  -11.267733      8.6063053     -27.823799      8.3977544     -4.9257039      12.436608      59.844165      53.661236      61.764922      1              198346.43      1.2101022      12651.769      22128.319     -2791.2151      386.13937      347.19487      24652.876     -19692.42       5307.6507      10.2         
     10400   299.54619      37717.929      18803.376      56521.306      108.98839      433.45625     -352.26582      245.77476      0.0020778398   0.00208       -0.0013125807  -0.0026129903   0.0020778398  -0.0013134429  -0.0026164102  -6.3214334      14.309518      8.5771621     -4.4324934     -16.301672      0.70931847     59.846553      53.561422      61.878402      1              198349.14      1.2100856      12422.245      22153.956     -2599.6747      390.31765      324.44832      24717.111     -19690.474      5351.0855      10.4         
     10600   299.03938      37896.518      18771.563      56668.081      161.37956      30.740114      1649.7965     -1196.3979      0.002117756    0.00212       -0.0031363839  -0.0010821228   0.002117756   -0.0031413127  -0.0010827088   3.4373438     -24.693875      1.1978771     -2.2582888     -20.831665     -7.9302663      59.848942      53.463608      61.973378      1              198298.72      1.2103933      12586.522      22162.885     -2667.1242      402.81013      406.71169      24697.689     -19692.976      5411.4253      10.6         
     10800   293.51604      37876.939      18424.847      56301.786     -53.781688     -504.24333     -389.29514      732.1934       0.0021576706   0.00216       -0.0018482075  -0.00043106891  0.0021576706  -0.0018499175  -0.00043116184 -13.025669     -28.561814     -4.2102864     -4.4866737     -14.205564     -1.2546474      59.851331      53.532695      62.013769      1              198692.31      1.2079956      12634.879      22135.595     -2630.7629      384.38583      401.57713      24646.851     -19695.585      5352.8431      10.8         
     11000   298.47231      37833.141      18735.966      56569.107     -330.08122     -104.0214      -1061.8385      175.61618      0.0021975835   0.0022        -0.00027084533 -1.9802459e-05  0.0021975835  -0.00027088202 -1.9802655e-05 -6.6939784      13.604416      19.037275      1.7709695     -5.1641573      18.900507      59.85372       53.617292      62.039285      1              199096.12      1.2055455      12669.806      22191.513     -2740.0034      396.2297       297.02859      24712.571     -19694.003      5315.5959      11           
     11200   298.38729      37783.486      18730.629      56514.115      442.49664      113.09371      71.857024      1142.5392      0.0022374949   0.00224       -0.0017750333  -0.002452754    0.0022374949  -0.0017766106  -0.0024557669   21.357186      25.106242      29.436216     -3.0440401     -1.7591497      4.1513407      59.856109      53.536619      61.888343      1              198320.81      1.2102585      12577.372      22145.378     -2690.7645      390.81319      387.24901      24668.445     -19695.007      5360.6874      11.2         
     11400   296.64033      37685.087      18620.968      56306.054     -236.71334     -959.52347      322.73839     -73.354927      0.0022774047   0.00228       -0.0023712952  -0.0043571341   0.0022774047  -0.0023741112  -0.0043666541  -16.115266     -20.061331     -14.993973      11.126538     -4.9238443      0.14199746     59.858498      53.504641      61.770194      1              197831.86      1.2132497      12384.803      22089.536     -2542.7167      409.28089      374.90533      24661.749     -19692.47       5344.1839      11.4         
     11600   299.49466      37756.286      18800.142      56556.428      240.41078      1347.3911     -95.205429     -530.95335      0.002317313    0.00232       -0.00067861726 -0.0037755471   0.002317313   -0.00067884762 -0.0037826925  -2.6517906     -11.30101      -23.472179      3.065969      -11.823905      3.0919356      59.860887      53.595422      61.806276      1              198291.19      1.2104392      12520.702      22121.534     -2603.3771      400.26531      316.54486      24693.682     -19693.065      5317.1624      11.6         
     11800   297.65023      37621.382      18684.362      56305.744      15.222079     -320.16834      1031.8816     -666.04707      0.0023572196   0.00236        0.00059439855 -0.0028633231   0.0023572196   0.00059422197 -0.0028674302   21.724858     -8.5899573      8.8397847     -8.6116375     -11.343712      2.5626769      59.863276      53.663696      61.862871      1              198733.52      1.2077451      12397.845      22195.023     -2693.146       394.30868      314.58399      24705.378     -19692.61       5327.3523      11.8         
     12000   296.06106      37899.88       18584.605      56484.484      142.56678      910.43558      516.56481     -999.30005      0.0023971246   0.0024         0.0016744245  -0.0033683339   0.0023971246   0.0016730242  -0.0033740195  -3.0142942      11.20679       19.106618     -11.349698     -26.309463      16.28882       59.865665      53.72162       61.83154       1              198855.21      1.207006       12569.516      22104.319     -2560.9259      418.07716      326.04633      24736.49      -19693.643      5368.8938      12           
     12200   297.45378      37936.386      18672.03       56608.416     -34.017291      415.39755      349.0047      -866.45412      0.002437028    0.00244        0.0013296998  -0.0046320388   0.002437028    0.0013288165  -0.0046428      6.8853307      12.168118     -5.7095058     -15.358899     -12.588796     -10.317653      59.868053      53.703132      61.753139      1              198542.64      1.2089063      12591.795      22155.006     -2548.3676      412.67394      279.33072      24739.91      -19693.962      5325.2785      12.2         
     12400   296.80904      37756.129      18631.558      56387.688      217.63577      421.01422     -46.115265      278.00834      0.0024769299   0.00248        0.00059950715 -0.005446716    0.0024769299   0.00059932752 -0.0054616035  -0.48930826    -1.7916123      2.0446381      4.4818431     -13.341289      1.3311543      59.870442      53.66397       61.702596      1              198243.38      1.2107311      12445.962      22196.814     -2673.0801      406.58025      310.82656      24763.45      -19694.423      5379.8532      12.4         
     12600   295.78229      37771.114      18567.106      56338.219      1146.8514      674.02182      1148.704       1617.8283      0.0025168301   0.00252        0.00030034453 -0.0070455907   0.0025168301   0.00030029944 -0.0070705281   4.9610523     -27.393137      2.3700465      15.024786     -20.052827      7.3891798      59.872831      53.647926      61.603401      1              197873.4       1.212995       12497.843      22153.601     -2783.8996      404.45822      486.06204      24705.186     -19692.138      5499.1103      12.6         
     12800   298.29155      37894.807      18724.619      56619.426      369.69661     -417.02279      159.32043      1366.7922      0.0025567288   0.00256        0.0027565062  -0.0074175019   0.0025567288   0.002752714   -0.0074451483  -3.7129071     -11.89638      -17.293287     -11.839879     -16.693419      5.0268943      59.87522       53.779654      61.580327      1              198292.88      1.2104289      12735.377      22243.506     -2798.7685      397.06667      289.01278      24720.893     -19692.281      5317.6251      12.8         
     13000   296.55683      37784.747      18615.726      56400.474      701.09712     -28.065145     -19.273961      2150.6305      0.0025966258   0.0026         0.003921187   -0.0060643489   0.0025966258   0.0039135192  -0.0060828118   6.351507       32.801637     -9.4892032     -3.6284261     -17.764572      27.163087      59.877609      53.842118      61.664278      1              198801.76      1.2073305      12558.159      22312.736     -2814.2605      397.48755      259.82345      24760.218     -19689.416      5330.6259      13           
     13200   297.82792      37857.689      18695.516      56553.206     -1269.3289     -1065.9864     -1097.9275     -1644.0728      0.0026365213   0.00264        0.0028794689  -0.0051066694   0.0026365213   0.0028753312  -0.005119753    18.668742      21.564232      14.270921     -0.87337947    -4.9521838      2.7819053      59.879998      53.786249      61.723693      1              198794.76      1.2073731      12617.334      22186.534     -2624.1502      410.62038      295.5644       24665.719     -19693.931      5267.3516      13.2         
     13400   299.83286      37810.686      18821.372      56632.057     -381.33265      118.27405     -675.94986     -586.32213      0.0026764152   0.00268        0.0010914304  -0.0051595971   0.0026764152   0.0010908352  -0.0051729538   13.570729     -2.0387912      1.9650086      8.0653982     -7.9778122     -4.2497156      59.882387      53.690353      61.720409      1              198437.69      1.2095456      12496.888      22173.19      -2657.0947      389.63113      389.0371       24710.365     -19691.331      5408.0713      13.4         
     13600   296.63227      37654.362      18620.461      56274.824     -337.70097     -738.94294     -140.79003     -133.36992      0.0027163075   0.00272       -0.0003107804  -0.0057303446   0.0027163075  -0.0003108287  -0.0057468261   14.527501     -10.492172      7.7968628      7.1386896     -26.208504      1.8883209      59.884776      53.61515       61.685         1              198053.95      1.2118892      12468.171      22126.417     -2710.5304      393.92102      313.87607      24754.508     -19692.002      5376.383       13.6         
     13800   297.04404      37826.627      18646.31       56472.937      92.532988      1493.0319     -1295.9527      80.519782      0.0027561982   0.00276       -0.00088982088 -0.0064133569   0.0027561982  -0.000890217   -0.0064340108   2.5310096     -7.963598      -12.103757      3.3617913     -14.238958      7.4458669      59.887165      53.584095      61.642625      1              197811.15      1.2133767      12439.779      22154.948     -2549.733       393.52342      317.00978      24765.169     -19694.069      5388.1092      13.8         
     14000   297.35747      37830.215      18665.984      56496.2       -548.26347     -925.86891      625.34113     -1344.2626      0.0027960873   0.0028        -0.00059471937 -0.005933484    0.0027960873  -0.00059489629 -0.0059511571   16.24804      -11.795409     -3.9756657     -7.3334238     -20.401277      9.5069961      59.889554      53.599922      61.672397      1              197973.04      1.2123845      12553.636      22173.617     -2594.6318      373.76978      312.01923      24702.385     -19690.58       5323.824       14           
     14200   293.08252      37699.68       18397.634      56097.313      459.32785      369.97015      377.03931      630.97411      0.0028359748   0.00284       -7.361861e-05  -0.0045884874   0.0028359748  -7.362132e-05  -0.0045990468   7.0127101      9.6987998     -18.470991      2.2806389      5.5072459     -5.6395924      59.891942      53.627869      61.755841      1              198352.18      1.2100671      12442.3        22103.235     -2616.9639      391.93647      344.032        24727.654     -19692.513      5379.1724      14.2         
     14400   295.80055      37894.72       18568.252      56462.972      624.12348      948.27383      253.30134      670.79526      0.0028758607   0.00288       -0.0007673068  -0.0020686644   0.0028758607  -0.00076760133 -0.0020708071   16.417073      24.568266      5.0714419      0.7581729     -3.5585585      2.8325511      59.894331      53.590666      61.912172      1              198724.27      1.2078013      12524.931      22335.28      -2723.3817      395.48069      331.4192       24720.868     -19689.877      5362.4101      14.4         
     14600   297.34432      37934.404      18665.159      56599.564      70.034453      811.07565     -1249.7537      648.78141      0.0029157451   0.00292       -0.002113812   -0.00088415343  0.0029157451  -0.0021160492  -0.00088454452  0.51669643    -6.4447007      14.143858      7.7083927     -29.262143     -3.4028115      59.89672       53.51845       61.98566       1              198699.97      1.2079491      12464.6        22226.698     -2633.551       417.81333      408.26104      24747.287     -19696.704      5458.8439      14.6         
     14800   295.84775      37699.833      18571.215      56271.048     -69.793495      232.92565     -566.69884      124.39271      0.0029556278   0.00296       -0.003600677    0.0014786551   0.0029556278  -0.003607175    0.001477563   -14.167782     -8.9472434     -2.2116547      2.6327644     -9.2442713     -2.2754675      59.899109      53.438707      62.13225       1              198881.04      1.2068493      12586.167      22134.328     -2677.2692      404.16933      249.86401      24693.949     -19691.374      5252.4386      14.8         
     15000   299.22129      37760.469      18782.982      56543.451      341.44179     -77.049759      452.68816      648.68697      0.002995509    0.003         -0.0051695929   0.0018883579   0.002995509   -0.0051830015   0.0018865772   27.547854     -9.0959186      57.274139     -2.616701      -21.486801     -0.7193874      59.901498      53.354563      62.157668      1              198657.04      1.2082101      12459.678      22221.007     -2626.1261      397.9854       326.0173       24676.775     -19694.868      5307.9247      15           
     15200   299.51092      37766.005      18801.163      56567.168     -301.13782     -255.48282      197.47892     -845.40955      0.0030353885   0.00304       -0.0055815954   0.00052638862  0.0030353885  -0.0055972307   0.00052625013  2.9727342     -17.29329      -28.157233     -2.8373776     -4.2116014     -8.6791195      59.903887      53.332467      62.07317       1              198312.73      1.2103078      12523.298      22159.363     -2590.0726      391.577        326.78005      24645.297     -19690.237      5281.8398      15.2         
     15400   299.76438      37581.934      18817.073      56399.008     -754.16731     -424.46952     -813.77812     -1024.2543      0.0030752665   0.00308       -0.0043676734   4.318843e-05   0.0030752665  -0.0043772395   4.3187498e-05 -10.584874     -20.619439     -2.1855281      10.153812     -2.2180249      3.2533565      59.906276      53.397571      62.043192      1              198466.84      1.2093679      12536.648      22059.601     -2623.2852      393.82434      204.86548      24703.776     -19693.495      5215.1464      15.4         
     15600   297.27393      37624.921      18660.74       56285.661     -18.373108     -508.65977      40.36673       413.17372      0.0031151429   0.00312       -0.0024618952  -0.00040445813  0.0031151429  -0.0024649306  -0.00040453994  10.916613      18.486466     -6.65826       -18.275054     -26.607721     -0.37140805     59.908665      53.499782      62.01542       1              198765.65      1.2075499      12517.254      22162.334     -2781.6116      401.00415      314.80325      24704.198     -19693.061      5325.94        15.6         
     15800   299.49959      37796.236      18800.451      56596.688     -38.935979     -684.55732      466.18079      101.56859      0.0031550177   0.00316       -0.001380741   -0.0013379497   0.0031550177  -0.0013816951  -0.0013388456   28.771197      9.9005748      21.209317     -2.3563846     -16.642602      19.183446      59.911054      53.557766      61.957506      1              198803.18      1.2073219      12566.089      22236.621     -2821.2679      390.36466      378.6908       24738.212     -19692.473      5424.4292      15.8         
     16000   297.24308      37742.018      18658.804      56400.822     -845.31745     -485.77239     -1099.6957     -950.48424      0.0031948909   0.0032        -0.00082812551 -0.0027543202   0.0031948909  -0.00082846859 -0.0027581203  -15.915762      13.257912     -13.795095     -1.7442638     -13.691764      12.477457      59.913442      53.587404      61.869634      1              198639.01      1.2083198      12489.882      22237.404     -2783.1899      403.78113      332.69195      24751.541     -19690.092      5394.1412      16           
     16200   295.04396      37620.657      18520.759      56141.415     -30.88246      -130.46651      180.32975     -142.51061      0.0032347625   0.00324       -0.0010020749  -0.0050888741   0.0032347625  -0.0010025774  -0.0051018665   6.3377601     -14.101742     -3.0141932      17.403479     -17.81306      -4.8468531      59.915831      53.578075      61.724797      1              198147.39      1.2113177      12514.831      22005.823     -2783.1107      406.86913      424.26943      24744.877     -19692.902      5476.2448      16.2         
     16400   299.445        37758.211      18797.025      56555.236      1298.9499      1483.7152      1023.5598      1389.5747      0.0032746325   0.00328        0.0012435958  -0.0070400987   0.0032746325   0.0012428231  -0.0070649971   11.162475     -12.066644     -5.8359546     -11.197715     -13.633402      10.026448      59.91822       53.698514      61.603742      1              198211.23      1.2109275      12535.524      22176.548     -2806.5621      415.60995      389.56878      24737.959     -19690.435      5437.0922      16.4         
     16600   300.19791      37791.133      18844.287      56635.42       577.74927      644.92464      789.31646      299.0067       0.003314501    0.00332        0.0043023589  -0.0062603501   0.003314501    0.0042931302  -0.0062800282   2.8779        -3.3354939     -32.038568      10.939673     -19.960518     -1.7750541      59.920609      53.862561      61.652118      1              198980.82      1.2062441      12637.909      22197.098     -2764.428       403.16589      345.80433      24663.27      -19691.687      5317.3878      16.6         
     16800   293.94958      37921.285      18452.061      56373.347     -1637.8221     -853.10882     -2670.8011     -1389.5565      0.0033543678   0.00336        0.0061536216  -0.0052432852   0.0033543678   0.0061347654  -0.0052570795   17.056922      27.077643      14.032145     -4.3663883     -11.222996     -8.5752506      59.922998      53.961848      61.715217      1              199559.59      1.2027457      12604.489      22231.706     -2621.59        399.80886      276.59077      24722.646     -19692.366      5306.8706      16.8         
     17000   300.14267      37756.73       18840.819      56597.549      1035.0723      1020.0196      1016.3107      1068.8866      0.0033942331   0.0034         0.0048620956  -0.0059451391   0.0033942331   0.0048503138  -0.0059628818   37.660671      13.886542      4.7805277     -4.8302131     -6.9911938      7.2893562      59.925387      53.892581      61.671674      1              199170.75      1.2050938      12782.608      22057.951     -2822.2365      395.70135      299.32154      24739.487     -19696.103      5342.7052      17           
     17200   299.61267      37879.329      18807.55       56686.879     -387.86997     -182.22711     -186.32374     -795.05906      0.0034340967   0.00344        0.0040878662  -0.0062226738   0.0034340967   0.0040795336  -0.0062421153   12.142638      6.2108694     -16.607678      1.3378925     -11.613803      2.2563985      59.927776      53.851057      61.654455      1              198969.66      1.2063118      12681.421      22195.799     -2792.3072      407.04374      344.78684      24736.618     -19694.032      5387.373       17.2         
     17400   297.89612      37676.464      18699.797      56376.261      453.36793      937.28874      599.45255     -176.63751      0.0034739588   0.00348        0.002487442   -0.0058960998   0.0034739588   0.0024843534  -0.0059135504   12.876566     -11.137935      5.3432013     -5.0026493     -6.8840607      4.7748414      59.930165      53.765224      61.674716      1              198725.72      1.2077925      12652.849      22071.985     -2781.9615      396.64043      331.58053      24698.551     -19693.18       5336.9516      17.4         
     17600   300.03957      37802.686      18834.348      56637.034     -402.95767     -1063.4177     -221.44933      75.994         0.0035138193   0.00352        0.00037784515 -0.0054388855   0.0035138193   0.00037777378 -0.0054537301   4.9792719      19.37698       4.735772      -9.9382472     -4.7338991      0.25635657     59.932554      53.652082      61.703082      1              198406.65      1.2097349      12415.548      22210.364     -2631.7128      400.53373      352.33823      24744.158     -19688.542      5407.9539      17.6         
     17800   297.62         37940.49       18682.464      56622.954      317.02669      328.66267      753.0795      -130.66211      0.0035536782   0.00356       -0.0012744433  -0.00483779     0.0035536782  -0.0012752561  -0.00484953    -5.4061033     -16.609281     -11.175952     -15.176593     -6.836984       18.318387      59.934942      53.563467      61.740374      1              198206.56      1.2109561      12562.286      22265.276     -2704.6719      398.72417      377.91662      24733.935     -19692.976      5418.876       17.8         
     18000   295.89832      37825.688      18574.389      56400.077      1074.2179      650.97776      857.26981      1714.406       0.0035935355   0.0036        -0.0017540856  -0.0046791913   0.0035935355  -0.0017556258  -0.004690173   -11.541703     -9.9210258      11.020783      5.7703281      1.6005454     -0.63495514     59.937331      53.537743      61.750214      1              198150.84      1.2112966      12615.091      22233.804     -2832.5371      383.73624      356.15475      24765.389     -19695.951      5425.593       18           
     18200   299.12249      38035.498      18776.78       56812.278      68.098702      775.57821      26.958488     -598.24059      0.0036333912   0.00364       -0.0023050213  -0.0045713031   0.0036333912  -0.0023076819  -0.0045817834   3.2759413      4.506125       11.000779     -20.100798     -15.909833      2.9732272      59.93972       53.508195      61.756907      1              198070.84      1.2117858      12717.639      22292.605     -2567.0151      383.9085       223.60593      24676.653     -19691.899      5208.3601      18.2         
     18400   296.94251      37972.616      18639.936      56612.553      605.73265      249.51079      1392.3468      175.34036      0.0036732454   0.00368       -0.002035643   -0.0044400931   0.0036732454  -0.0020377177  -0.0044499796  -0.6708051     -11.480237     -10.811677     -3.2574654     -17.823818      2.4277407      59.942109      53.522642      61.765047      1              198158.34      1.2112508      12690.645      22215.326     -2755.5613      398.64677      367.74707      24748.005     -19692.192      5423.5602      18.4         
     18600   297.85724      37794.237      18697.357      56491.593      364.12429      184.115        962.52431     -54.266424      0.0037130979   0.00372       -0.00080413551 -0.0046255077   0.0037130979  -0.000804459   -0.0046362385   4.9380968     -2.3919221      0.12734864    -9.1350243     -8.9959125      4.7972567      59.944498      53.58869       61.753544      1              198373.82      1.209935       12478.134      22075.158     -2656.7647      409.41219      426.99046      24755.434     -19694.127      5488.2974      18.6         
     18800   298.55308      38042.747      18741.036      56783.784      552.88576     -40.125558      699.98021      998.80262      0.0037529489   0.00376       -0.00085997014 -0.0059139859   0.0037529489  -0.00086034013 -0.0059315428   19.410124      9.8212351      9.0800266      7.2250665     -14.867649     -5.0969314      59.946887      53.585696      61.673606      1              198113.86      1.2115227      12643.508      22229.783     -2638.6471      396.00268      371.17831      24732.044     -19691.122      5412.1009      18.8         
     19000   299.49097      37905.836      18799.91       56705.746     -629.38237     -738.67054     -682.32676     -467.1498       0.0037927982   0.0038        -0.00018652383 -0.0072062283   0.0037927982  -0.00018654123 -0.0072323186  -12.387448     -22.633702     -2.3115013      10.320278     -14.690441      6.8682716      59.949276      53.621814      61.593435      1              197997.57      1.2122342      12665.641      22117.964     -2566.2461      395.1784       266.7477       24718.359     -19691.808      5293.2984      19           
     19200   295.13205      37892.129      18526.289      56418.418      948.01749      782.03498      1090.5778      971.43965      0.003832646    0.00384        0.0027921428  -0.0092593453   0.003832646    0.002788252   -0.0093024796   12.685747      13.221619     -1.2638694     -0.85249932    -2.9329885     -4.9397358      59.951665      53.781565      61.466059      1              198184.67      1.2110899      12596.587      22256.68      -2633.9863      417.7075       241.48194      24710.013     -19696.354      5255.1408      19.2         
     19400   297.20998      37893.881      18656.726      56550.607     -77.611619     -167.45753     -304.47806      239.10073      0.0038724922   0.00388        0.0059187264  -0.0118842      0.0038724922   0.0059012795  -0.011955382    4.5078603      4.5461361      0.8398263      14.1152       -18.140334     -4.6841145      59.954054      53.94925       61.303211      1              198283.78      1.2104845      12655.912      22279.167     -2739.4837      399.94249      264.17929      24723.26      -19689.096      5298.3436      19.4         
     19600   298.45365      38025.286      18734.795      56760.081      921.17411      1541.2992     -797.03378      2019.2569      0.0039123368   0.00392        0.0077217747  -0.013204043    0.0039123368   0.0076921144  -0.013291991   -16.477091      10.658351     -33.191292     -4.7195407     -13.723051      11.732193      59.956443      54.04595       61.221327      1              198381.77      1.2098866      12579.407      22241.62      -2646.1156      399.94414      464.55648      24675.827     -19689.953      5450.4302      19.6         
     19800   298.99786      37779.436      18768.957      56548.393     -88.369222     -324.21951      351.00759     -291.89574      0.0039521798   0.00396        0.0089042414  -0.012237342    0.0039521798   0.0088648324  -0.012312835   -4.307922       12.636736     -12.483104      4.7738177     -27.624185      6.5826284      59.958831      54.109368      61.281302      1              198817.04      1.2072378      12674.224      21920.26      -2562.1632      400.01342      301.00259      24738.469     -19692.37       5347.1016      19.8         
     20000   297.59472      37843.613      18680.878      56524.491     -886.04505     -1055.9453     -822.79326     -779.39654      0.0039920213   0.004          0.0080939064  -0.00980626     0.0039920213   0.0080613264  -0.009854658    24.855643      27.916142     -21.743964      5.0791612     -18.698364     -6.4570553      59.96122       54.065909      61.432128      1              199154.23      1.2051938      12543.614      22143.26      -2617.4054      412.55143      284.60449      24772.494     -19695.506      5361.5924      20           
     20200   298.57235      37842.789      18742.246      56585.034      25.530497     -457.16638      207.29824      326.45962      0.0040318611   0.00404        0.0065212566  -0.0074445992   0.0040318611   0.0065000852  -0.0074724486  -5.633296      -2.2706377      11.877455     -4.9731984     -24.951894     -7.5643129      59.963609      53.981565      61.578646      1              199325.73      1.2041568      12524.003      22137.592     -2687.8196      391.2189       446.4949       24722.784     -19691.484      5477.7945      20.2         
     20400   299.05986      37973.903      18772.849      56746.752     -253.46152      69.147612     -30.480633     -799.05155      0.0040716994   0.00408        0.0047506286  -0.0058417424   0.0040716994   0.0047393799  -0.0058588721   26.851227     -1.8281104      0.5795125      13.155609     -15.38247       3.0147247      59.965998      53.886603      61.678088      1              199304.35      1.204286       12610.053      22150.226     -2604.4157      412.57054      421.84912      24677.652     -19694.032      5405.47        20.4         
     20600   297.94543      37780.166      18702.892      56483.059      233.36318     -64.118023      290.19095      474.01661      0.004111536    0.00412        0.0028329772  -0.005502297    0.004111536    0.0028289718  -0.0055174904   24.838296      17.117256      9.6674941      3.7822098     -10.462027     -1.0273896      59.968387      53.783755      61.699148      1              198999.81      1.206129       12628.136      22155.864     -2675.7901      389.69841      229.74938      24747.326     -19694.816      5282.2586      20.6         
     20800   298.00245      37781.164      18706.471      56487.635      387.65261     -369.46825      578.14013      954.28594      0.0041513711   0.00416        0.00019460148 -0.0051759624   0.0041513711   0.00019458255 -0.0051894041   14.539076      13.975935     -15.078228      4.1946375     -16.288219      5.441825       59.970776      53.642254      61.719394      1              198549.29      1.2088658      12558.604      22119.581     -2623.2531      400.23367      343.53559      24676.808     -19694.345      5325.9982      20.8         
     21000   300.29277      38035.37       18850.242      56885.612      588.38562      412.93521      1548.6134     -196.39176      0.0041912046   0.0042        -0.0013746194  -0.0042498712   0.0041912046  -0.0013755651  -0.0042589276  -13.579178     -2.9425343     -0.44057968     7.6698057     -0.73411843     6.9792649      59.973165      53.558094      61.776849      1              198430.23      1.2095911      12719.839      22160.039     -2670.836       405.41348      379.11129      24733.978     -19692.175      5420.914       21           
     21200   297.88254      37914.231      18698.945      56613.176      311.30605     -234.79512      51.569287      1117.144       0.0042310365   0.00424       -0.0013614493  -0.0037611355   0.0042310365  -0.001362377   -0.0037682263   16.417651     -14.022376      12.189603     -2.9989606     -10.339325      0.43890999     59.975554      53.558801      61.80717       1              198538.15      1.2089336      12636.01       22178.116     -2799.7859      410.03429      453.9255       24730.357     -19694.427      5489.8561      21.2         
     21400   296.71038      37837.41       18625.365      56462.775      492.44055      71.308986     -215.49738      1621.51        0.0042708669   0.00428        0.00012042481 -0.002489388    0.0042708669   0.00012041756 -0.0024924917  -21.397339     -12.984787     -19.427996      4.016326      -17.129685     -0.3841202      59.977943      53.638276      61.88607       1              199094.51      1.2055553      12647.125      22070.811     -2670.373       394.01283      360.98922      24728.111     -19693.265      5395.8345      21.4         
     21600   298.71156      37930.85       18750.984      56681.835      264.04662      804.04022      18.156844     -30.057187      0.0043106956   0.00432       -0.00022385034 -0.002761402    0.0043106956  -0.00022387539 -0.0027652217   23.087557      24.654522      30.225049      5.7232974     -33.618552      2.5839509      59.980331      53.619812      61.869194      1              198979.63      1.2062513      12607.925      22159.449     -2616.166       413.92651      359.03927      24697.983     -19691.307      5365.7153      21.6         
     21800   296.3865       37960.225      18605.034      56565.258     -189.18684      133.07719      267.03669     -967.6744       0.0043505227   0.00436       -0.0010979124  -0.0040491992   0.0043505227  -0.0010985155  -0.0040574194  -0.22985481    -17.207853     -14.464968      7.2594199     -9.4080732     -4.9831654      59.98272       53.572935      61.789299      1              198556.84      1.2088198      12529.397      22122.478     -2407.0167      404.6164       287.78128      24712.616     -19689.647      5310.7499      21.8         
     22000   297.12499      37750.826      18651.391      56402.217     -575.41942     -691.11233     -383.67455     -651.47138      0.0043903483   0.0044        -0.00068803043 -0.0039512389   0.0043903483  -0.00068826723 -0.0039590657   7.4383386     -5.0818859      5.0107298     -3.6425784     -14.760122      10.064334      59.985109      53.594917      61.795376      1              198665.77      1.208157       12720.598      22024.104     -2585.3333      387.37188      211.3123       24688.084     -19695.31       5204.0863      22           
     22200   298.51317      37889.243      18738.531      56627.774      186.37922     -342.94305     -194.65549      1096.7362      0.0044301723   0.00444       -0.00066119721 -0.0057912      0.0044301723  -0.0006614159  -0.005808034    15.375984      6.9015564      3.2292624     -8.6475074     -9.4026905      3.184576       59.987498      53.596356      61.681224      1              198312         1.2103122      12573.529      22092.11      -2608.7199      401.13313      438.5203       24680.206     -19687.536      5431.1902      22.2         
     22400   296.43842      37878.251      18608.293      56486.545     -112.76869      8.5550532     -833.41516      486.55402      0.0044699947   0.00448        0.00012635211 -0.0058887072   0.0044699947   0.00012634413 -0.005906114    20.980865     -10.836404     -9.6895645     -9.0220395     -1.8169732     -10.225407      59.989887      53.638594      61.675175      1              198456.72      1.2094296      12678.354      22176.752     -2691.2833      400.73376      278.5579       24723.738     -19688.601      5313.6956      22.4         
     22600   298.60735      37761.266      18744.443      56505.709      1735.3429      1571.4178      1879.9005      1754.7106      0.0045098155   0.00452       -0.00011074242 -0.006200675    0.0045098155  -0.00011074855 -0.006219979    16.52353       10.376495     -4.8795774     -4.112872      -12.779985      18.553038      59.992276      53.625878      61.65582       1              198355.31      1.210048       12691.17       22047.826     -2835.961       415.20238      439.50959      24700.99      -19697.471      5443.0283      22.6         
     22800   301.21091      37880.438      18907.876      56788.314      169.17661     -9.4251641      440.66136      76.29362       0.0045496347   0.00456        0.0010510541  -0.0065023923   0.0045496347   0.0010505021  -0.0065236249   7.4899214     -12.991281      13.14823       1.7137094     -19.81506      -2.5151141      59.994665      53.688188      61.637101      1              198533.4       1.2089625      12542.871      22190.26      -2633.6939      403.30942      412.01505      24658.222     -19692.545      5377.6913      22.8         
     23000   299.36896      37649.014      18792.251      56441.265     -339.27324     -503.8951      -1305.4507      791.52606      0.0045894523   0.0046         0.0027505603  -0.0075877029   0.0045894523   0.0027467844  -0.0076166359  -4.0577687     -1.9302946     -5.6636332      8.6173064     -17.567252      1.8735922      59.997054      53.779335      61.569768      1              198661.12      1.2081853      12567.629      22076.709     -2696.7473      398.83922      341.35528      24654.335     -19693.106      5302.5841      23           
     23200   297.17296      37806.824      18654.402      56461.226      636.48046      241.21948     -257.66789      1925.8898      0.0046292684   0.00464        0.0036470492  -0.0072195357   0.0046292684   0.0036404149  -0.0072457227   1.7317545      6.3320398     -14.1647        6.1037865     -7.5508665      5.2812927      59.999443      53.827416      61.592609      1              198920.41      1.2066104      12458.102      22104.848     -2594.2357      412.70635      462.06059      24656.393     -19693.051      5425.403       23.2         
     23400   299.60809      37938.389      18807.263      56745.652      187.40031     -279.97386     -20.580605      862.75538      0.0046690828   0.00468        0.004052987   -0.0069143042   0.0046690828   0.0040447958  -0.0069383188   19.832188      12.074627      1.0083571     -0.39969723    -11.073812      16.919591      60.001831      53.849187      61.611546      1              199069.98      1.2057039      12705.932      22120.197     -2721.1594      394.03742      436.1082       24693.09      -19689.816      5439.3823      23.4         
     23600   297.60772      37857.837      18681.694      56539.531     -110.58469     -268.34086     -378.34612      314.93292      0.0047088957   0.00472        0.0040396781  -0.0062892781   0.0047088957   0.0040315405  -0.0063091389   9.4154979      14.339418      15.389633      18.114872     -22.155345      4.5990706      60.00422       53.848473      61.650323      1              199200.56      1.2049135      12491.5        22168.628     -2557.6045      413.78257      335.74643      24698.663     -19692.878      5341.5312      23.6         
     23800   299.89244      37792.23       18825.112      56617.342      320.47008     -486.50353     -194.37291      1642.2867      0.004748707    0.00476        0.0024949201  -0.0066270715   0.004748707    0.0024918129  -0.006649128    8.7486959     -9.3241726     -7.9462256     -0.29313786    -15.36325       14.739474      60.006609      53.765625      61.629366      1              198834.38      1.2071325      12644.996      22079.256     -2694.8381      399.42223      340.76925      24715.235     -19692.61       5363.3944      23.8         
     24000   301.29875      37950.56       18913.39       56863.95      -35.305844      109.64738     -406.04039      190.47548      0.0047885167   0.0048         0.0014633295  -0.0055266851   0.0047885167   0.0014622599  -0.0055420137   5.6559134      7.7591641     -12.878652      18.320067     -35.04058      -9.1297114      60.008998      53.710299      61.697635      1              198857.72      1.2069908      12543.301      22266.285     -2622.6007      413.31198      369.50836      24669.378     -19688.623      5350.2636      24           
     24200   298.09413      37808.965      18712.227      56521.192      586.89504     -318.05239      991.44581      1087.2917      0.0048283249   0.00484       -0.0012466669  -0.0037143044   0.0048283249  -0.0012474446  -0.0037212195   24.56426       4.7792711      0.44871409     4.1219508     -24.333286      14.070921      60.011387      53.564957      61.810076      1              198688.94      1.2080161      12479.348      22172.788     -2705.2855      414.40536      437.66253      24706.449     -19696.402      5447.7094      24.2         
     24400   297.66295      37766.142      18685.16       56451.302      495.60019      305.79349      212.1097       968.89738      0.0048681314   0.00488       -0.0033622093  -0.0017515257   0.0048681314  -0.0033678743  -0.0017530614   17.474004     -7.0331401      4.9806036      12.957718     -18.882577      4.4466878      60.013776      53.451496      61.931848      1              198666.6       1.208152       12459.474      22166.175     -2578.5106      392.43554      337.39427      24681.868     -19692.695      5326.5677      24.4         
     24600   297.2949       37830.577      18662.056      56492.634     -876.42768     -390.20922     -760.45968     -1478.6141      0.0049079364   0.00492       -0.0034837449   0.00016054507  0.0049079364  -0.0034898273   0.00016053219 -5.4583106     -25.477        -2.0266823      23.753377     -15.928159      10.077779      60.016165      53.444978      62.050473      1              199030.78      1.2059413      12616.299      22210.373     -2624.8124      398.86467      211.17592      24714.348     -19695.67       5229.8535      24.6         
     24800   298.71251      37886.066      18751.044      56637.11       214.89117     -714.00074      925.17354      433.5007       0.0049477397   0.00496       -0.0029583389   0.00084370596  0.0049477397  -0.0029627234   0.00084335024 -3.2249752     -3.5821799      13.077013      3.0272697     -16.155883      10.149185      60.018554      53.473157      62.092857      1              199279.67      1.2044352      12446.047      22123.674     -2493.0039      395.35807      380.52222      24723.698     -19690.23       5413.9909      24.8         
     25000   298.20124      37774.455      18718.95       56493.405      64.277903      206.91928     -40.607559      26.52199       0.0049875415   0.005         -0.0017026436   0.00019698159  0.0049875415  -0.0017040947   0.0001969622   25.606178     -0.34156381     24.397068     -0.85895972    -16.654786     -3.7622487      60.020943      53.540502      62.052734      1              199409.65      1.2036501      12610.091      22167.19      -2782.6944      403.35516      364.13363      24706.719     -19694.339      5376.5134      25           
     25200   297.43296      37635.774      18670.723      56306.497     -108.7006       357.05479     -882.8051       199.64852      0.0050273417   0.00504       -0.0012835904  -0.0021635694   0.0050273417  -0.0012844149  -0.0021659133   13.237711      5.4311047      4.660391       0.23394374    -15.860943      12.135303      60.023332      53.562976      61.906284      1              199030.45      1.2059433      12501.651      22033.3       -2621.3073      422.0725       336.35059      24654.221     -19690.514      5300.0578      25.2         
     25400   300.75856      37797.924      18879.481      56677.405     -512.58436     -439.6572      -631.18379     -466.91209      0.0050671403   0.00508       -0.00097299452 -0.0049027794   0.0050671403  -0.00097346819 -0.0049148374   19.906551     -12.881041      9.5611688     -0.3714769     -16.263008     -4.447997       60.02572       53.579634      61.736342      1              198553.72      1.2088388      12685.813      22096.186     -2675.1572      386.47893      311.00672      24681.403     -19687.808      5304.6023      25.4         
     25600   294.87163      37944.242      18509.941      56454.183      150.54258     -809.48707      691.96924      569.14558      0.0051069374   0.00512        0.00055028983 -0.0069616853   0.0051069374   0.00055013848 -0.0069860309   3.5205552     -8.8852308     -14.362693      1.0869106     -16.631311     -3.6669268      60.028109      53.661331      61.608607      1              198452.92      1.2094528      12581.645      22225.267     -2636.5516      414.68034      392.10315      24656.096     -19688.998      5359.2007      25.6         
     25800   295.16687      37553.82       18528.474      56082.295     -1179.8354     -1472.0487     -722.61421     -1344.8431      0.0051467328   0.00516        0.0013201372  -0.0078992865   0.0051467328   0.0013192666  -0.0079306511   27.773413      22.052018      12.071965     -0.53691925    -18.58864       15.388453      60.030498      53.702619      61.550437      1              198425.99      1.2096169      12508.291      22010.016     -2664.1383      410.99521      297.16831      24683.609     -19692.121      5288.6566      25.8         
     26000   297.33317      37731.378      18664.459      56395.838     -628.83999     -406.60138     -1186.4298     -293.48882      0.0051865267   0.0052         0.0015930886  -0.0088006891   0.0051865267   0.001591821   -0.0088396439   22.216768      13.034835     -28.156864      14.608878     -31.945796     -8.177374       60.032887      53.717258      61.494514      1              198307.64      1.2103389      12567.696      22141.188     -2633.824       407.96069      265.36618      24671.979     -19688.988      5248.3576      26           
     26200   296.98903      37945.414      18642.856      56588.27       147.36741     -751.99685      729.62298      464.47609      0.005226319    0.00524       -7.115838e-05  -0.0082348096   0.005226319   -7.1160912e-05 -0.0082689029   9.1771631      8.5127105     -15.886622      11.592782     -30.537547      3.7810181      60.035276      53.628001      61.529621      1              198099.04      1.2116134      12576.746      22181.1       -2567.1349      410.76437      365.36137      24666.296     -19687.719      5343.9385      26.2         
     26400   299.12069      37897.725      18776.667      56674.392      1094.7541      1590.7331      1498.9337      194.59555      0.0052661097   0.00528       -0.00052677518 -0.0062360777   0.0052661097  -0.00052691398 -0.0062556032   4.0859529     -39.506418     -15.700786     -16.534405     -24.638612      10.249684      60.037665      53.603566      61.653624      1              198415.72      1.2096795      12570.717      22090.719     -2591.3723      411.81552      369.53089      24735.773     -19689.459      5415.8454      26.4         
     26600   297.95202      37611.896      18703.306      56315.202     -274.68097     -774.68143      205.41272     -254.7742       0.0053058988   0.00532        0.0003603667  -0.0033875506   0.0053058988   0.00036030178 -0.0033933014   21.197116      8.2677607      9.5324815     -10.841292     -17.073193      8.1649328      60.040054      53.651145      61.830348      1              199169.01      1.2051044      12430.043      22055.023     -2633.2244      397.94685      340.13665      24711.767     -19689.795      5362.1083      26.6         
     26800   297.99548      37870.567      18706.034      56576.601     -638.62071     -817.68699     -226.12802     -872.04713      0.0053456863   0.00536        0.00041533973 -0.0023962594   0.0053456863   0.0004152535  -0.0023991351   15.430974      21.715411      19.197879     -1.6308225     -24.759191      4.0338421      60.042443      53.654093      61.891848      1              199386         1.2037928      12518.33       22121.659     -2546.0978      393.92404      395.55345      24676.538     -19689.341      5382.7512      26.8         
     27000   298.97867      37788.391      18767.752      56556.143      108.95473     -204.85888      881.75195     -350.02887      0.0053854723   0.0054        -0.0013501275  -0.0025071643   0.0053854723  -0.0013510398  -0.0025103125   34.057446      3.3833536      8.9735717      7.2903475      1.6905699     -10.705523      60.044832      53.559408      61.884967      1              199019.93      1.2060071      12554.841      22134.194     -2590.4664      401.98092      289.77551      24689.308     -19691.243      5287.841       27           
     27200   296.3428       37641.661      18602.29       56243.952      309.35544      791.25472      508.8113      -371.99971      0.0054252566   0.00544       -0.002820567   -0.0028555383   0.0054252566  -0.0028245523  -0.0028596231  -0.86573683    -5.4092444     -18.198496      9.7798264     -16.768659     -8.7509968      60.04722       53.480546      61.863354      1              198665.38      1.2081593      12500.596      21936.921     -2677.4308      386.75953      495.09449      24688.242     -19688.521      5494.8161      27.2         
     27400   297.38302      37902.845      18667.588      56570.433      339.9214       1085.4925      284.72594     -350.45422      0.0054650394   0.00548       -0.0025858789  -0.0023787485   0.0054650394  -0.002589228   -0.0023815822   10.149856     -26.650374      7.405076       3.277571      -14.754518      9.2602079      60.049609      53.493132      61.892934      1              198815.06      1.2072498      12546.261      22017.573     -2570.6169      393.01314      491.49152      24716.786     -19691.663      5516.6153      27.4         
     27600   298.75916      37876.674      18753.972      56630.646      208.8531       544.39458     -205.58581      287.75054      0.0055048206   0.00552       -0.00023241484 -0.0022515899   0.0055048206  -0.00023244185 -0.0022541285  -0.557037       0.21512805    -3.6297879      9.3419936     -15.383703      2.4544773      60.051998      53.619353      61.900823      1              199317.51      1.2042065      12512.957      22221.013     -2712.0718      408.60706      409.19339      24732.344     -19695.369      5446.1683      27.6         
[...]
    744000   298.26752      38025.636      18723.111      56748.747      301.84631     -393.1198      -309.626        1608.2847      0.13871792     0.1488        -0.055881709   -0.059801312    0.13871792    -0.057503812   -0.061664056    130.32058      18.544795      14.472937      13.115333      12.911757     -2.0776649      68.609014      50.63478       58.330409      1              202639.98      1.1844624      12476.935      22180.852     -2769.5189      417.26038      652.46285      24754.027     -19686.383      5720.1074      744          
    744200   299.48839      38059.45       18799.749      56859.199      484.58425      465.32096      525.38701      463.04477      0.13875274     0.14884       -0.055967777   -0.062316425    0.13875274    -0.057594979   -0.064342727    137.1183      -2.4651434      1.3590065     -0.60731434    -6.7505683     -5.218668       68.611403      50.630164      58.17437       1              202086.51      1.1877064      12646.577      22270.658     -2741.7533      406.23725      462.7228       24702.586     -19687.577      5477.7317      744.2        
    744400   299.28525      38087.614      18786.997      56874.611      14.527371     -1007.9081     -93.828701      1145.3189      0.13878755     0.14888       -0.05591026    -0.065030022    0.13878755    -0.057534054   -0.067240859    127.94898     -5.1568389     -21.176315     -2.1450367     -5.8387878     -9.3595298      68.613792      50.633249      58.006017      1              201520.98      1.1910395      12503.402      22305.727     -2670.7719      409.46244      511.39813      24718.408     -19690.012      5539.7941      744.4        
    744600   296.09625      38013.269      18586.814      56600.083      131.72166     -734.34952      501.13344      628.38105      0.13882237     0.14892       -0.054996027   -0.065099449    0.13882237    -0.056566147   -0.067315118    130.02839     -15.141052     -43.078293     -0.74999828    -3.1541588     -3.244647       68.616181      50.682281      58.00171       1              201708.17      1.1899342      12516.849      22231.604     -2699.2083      397.86854      537.25101      24714.531     -19685.626      5566.1554      744.6        
    744800   299.56408      38146.332      18804.499      56950.831     -65.517484     -939.59891     -55.585536      798.63199      0.13885719     0.14896       -0.052849596   -0.063048438    0.13885719    -0.054297377   -0.065123693    126.25594      6.6298155      8.2128704     -13.470018     -0.5853327      1.9691455      68.618569      50.797398      58.128956      1              202616.89      1.1845974      12535.512      22255.401     -2677.7502      411.30554      564.63296      24746.501     -19689.271      5621.8635      744.8        
    745000   297.5332       38183.479      18677.015      56860.495     -1776.5065     -2948.3216     -681.55993     -1699.6379      0.138892       0.149         -0.05194045    -0.062086798    0.138892      -0.053337962   -0.06409787     160.42126      28.934566      12.546126     -15.866071      0.42947839     6.2461401      68.620958      50.846157      58.188616      1              203026.6       1.1822069      12555.596      22303.641     -2658.9632      409.61899      548.8341       24714.56      -19689.807      5573.5871      745          
    745200   294.65371      38057.672      18496.261      56553.933     -185.27586     -1256.2014     -356.49593      1056.8698      0.13892681     0.14904       -0.053591445   -0.061801344    0.13892681    -0.055080926   -0.063793566    135.73277      15.280835     -11.855841     -13.981769      4.8095245      1.9052513      68.623347      50.757611      58.206326      1              202741.78      1.1838677      12642.78       22089.849     -2742.9079      401.10322      633.73497      24722.495     -19689.382      5666.8478      745.2        
    745400   297.58505      38311.273      18680.27       56991.543     -1412.6808     -1912.6258     -1036.9905     -1288.4262      0.13896162     0.14908       -0.055905902   -0.059686287    0.13896162    -0.057529437   -0.061541722    101.48068     -9.8200195     -7.3305704     -10.108131      3.0966525     -7.658611       68.625736      50.633483      58.337545      1              202708.97      1.1840593      12721.118      22242.552     -2601.4792      396.61957      472.54428      24766.167     -19686.249      5552.4627      745.4        
    745600   298.20911      38082.541      18719.444      56801.986      488.05929     -1712.3715      2478.601       697.94843      0.13899643     0.14912       -0.057580548   -0.058596923    0.13899643    -0.059304825   -0.060383881    140.69561     -14.491714      26.613868     -5.2528234      0.029065539   -10.637466      68.628125      50.543668      58.40513       1              202590.88      1.1847495      12576.014      22229.343     -2867.6779      400.9429       660.76645      24772.262     -19689.109      5743.9197      745.6        
    745800   295.96433      38194.386      18578.533      56772.919     -135.70224     -994.53282      114.1067       473.3194       0.13903124     0.14916       -0.05796337    -0.059096426    0.13903124    -0.05971112    -0.060914616    106.51718     -2.4102116      5.5077048      11.436412     -6.1106549     -0.61792944     68.630514      50.523137      58.37414       1              202408.18      1.1858189      12465.412      22338.034     -2667.5976      395.54417      622.63775      24730.127     -19689.771      5662.9933      745.8        
    746000   301.28907      38162.147      18912.782      57074.929     -1001.16       -1381.3845     -915.39151     -706.70392      0.13906605     0.1492        -0.057462914   -0.058779513    0.13906605    -0.059180012   -0.060577856    121.67874     -20.478976     -17.577937     -2.8829113      6.1283441      9.9178292      68.632903      50.549977      58.393802      1              202590.97      1.184749       12485.001      22254.876     -2636.4609      411.29155      609.17477      24724.816     -19686.551      5647.4395      746          
    746200   296.35273      38123.705      18602.914      56726.619     -624.50718     -2111.9312     -399.41623      637.82588      0.13910085     0.14924       -0.056760802   -0.057207945    0.13910085    -0.058435372   -0.058909535    124.04069      6.7930335     -6.8445903     -2.9728417      2.1169045     -12.083894      68.635292      50.587633      58.491303      1              203087.47      1.1818525      12573.537      22230.098     -2723.6061      398.86059      583.76678      24747.853     -19686.804      5644.8153      746.2        
    746400   296.77625      38204.933      18629.499      56834.433     -1272.7197     -2447.2813     -566.42291     -804.45491      0.13913566     0.14928       -0.055951055   -0.056560737    0.13913566    -0.057577265   -0.058223291    139.75657     -3.9812969      28.485702     -5.7774596     -1.8619046      10.561569      68.637681      50.631061      58.531456      1              203408.43      1.1799877      12492.416      22316.464     -2654.1367      396.44813      613.53819      24724.169     -19683.965      5653.7421      746.4        
    746600   299.31642      38286.162      18788.953      57075.115     -518.23131     -1246.3656     -225.0833      -83.24505       0.13917046     0.14932       -0.054471888   -0.059205488    0.13917046    -0.056011658   -0.061030536    158.50161     -1.2272712      27.668743      12.160826      14.919288      8.0002533      68.640069      50.710391      58.367374      1              203163.1       1.1814126      12556.136      22376.021     -2702.097       399.79402      572.60874      24767.928     -19684.229      5656.3071      746.6        
    746800   299.57772      38339.502      18805.356      57144.858     -180.53868     -729.17279     -548.30897      735.86572      0.13920527     0.14936       -0.053383084   -0.061853812    0.13920527    -0.054860791   -0.063849491    141.51623      7.3408103     -9.1667378      10.156009     -9.4077601      1.0318105      68.642458      50.768786      58.203071      1              202831.55      1.1833437      12618.092      22238.8       -2626.0382      428.21111      677.34285      24689.81      -19686.715      5680.4372      746.8        
    747000   296.81893      38129.137      18632.179      56761.316     -45.116251     -1038.8285      59.676315      843.80346      0.13924007     0.1494        -0.052428476   -0.063838639    0.13924007    -0.053852857   -0.065967423    118.08492     -4.8203183     -13.477287      1.4522214     -0.22122681    -5.4967248      68.644847      50.819983      58.079931      1              202613.58      1.1846167      12499.909      22408.27      -2757.4667      400.31281      544.66839      24719.343     -19685.899      5578.1116      747          
    747200   296.79523      38161.229      18630.691      56791.92      -412.83764     -1393.8293      449.85368     -294.53733      0.13927487     0.14944       -0.051983579   -0.064642247    0.13927487    -0.053383455   -0.066826199    128.04851     -2.5186096     -20.267294     -12.681316     -11.147246      14.132366      68.647236      50.843844      58.030075      1              202541.75      1.1850368      12483.379      22248.871     -2628.4485      413.62435      627.37785      24705.31      -19688.884      5643.8029      747.2        
    747400   300.57191      38219.074      18867.764      57086.838     -191.22257     -1241.7073      296.70757      371.33208      0.13930967     0.14948       -0.052053529   -0.064374153    0.13930967    -0.053457243   -0.066539618    132.54395      27.504837      9.0277617     -2.3707338     -4.6498938     -0.36030201     68.649625      50.840092      58.046708      1              202591.91      1.1847435      12570.61       22331.002     -2670.6529      418.12049      528.76231      24729.233     -19688          5569.9953      747.4        
    747600   298.06201      38108.098      18710.211      56818.309     -1108.6645     -1780.518      -710.88341     -834.59202      0.13934446     0.14952       -0.052031921   -0.06360156     0.13934446    -0.053434449   -0.065714209    142.02141     -13.087486     -28.402744      15.973982      4.9303675      13.219768      68.652014      50.841251      58.09464       1              202770.87      1.1836978      12653.269      22290.758     -2770.2389      403.79618      539.03463      24676.088     -19684.609      5530.5135      747.6        
    747800   297.89668      38069.459      18699.832      56769.291     -271.91196     -1072.7892      465.66512     -208.61177      0.13937926     0.14956       -0.052703503   -0.062501263    0.13937926    -0.054143144   -0.064539868    166.16654      20.78146       30.358851      7.1414481     -14.090542     -20.301873      68.654403      50.805233      58.162903      1              202872.38      1.1831056      12575.756      22286.513     -2703.6031      408.71196      537.48292      24654.052     -19689.453      5502.082       747.8        
    748000   299.30157      38171.839      18788.021      56959.86      -483.42513     -1497.678      -302.55758      349.96023      0.13941406     0.1496        -0.053943121   -0.062514501    0.13941406    -0.055452586   -0.064553989    149.2078      -0.90416322    -6.960616       6.2247769     -10.936848      13.570666      68.656792      50.73875       58.162081      1              202611.09      1.1846313      12588.718      22194.849     -2615.1992      411.64348      631.67752      24647.718     -19687.568      5591.8267      748          
    748200   298.51129      38249.468      18738.413      56987.881      526.33352     -646.71872      1328.9561      896.76319      0.13944885     0.14964       -0.055841644   -0.062313918    0.13944885    -0.057461376   -0.064340054    130.36674     -8.0136226     -15.298893      8.0104885     -16.372086     -4.0788662      68.659181      50.636929      58.174526      1              202254.79      1.1867182      12631.646      22248.739     -2687.7452      414.69831      669.42678      24654.69      -19681.987      5642.13        748.2        
    748400   296.68334      38046.022      18623.668      56669.689     -356.92958     -2235.3205      572.90873      591.62299      0.13948364     0.14968       -0.056497044   -0.060225972    0.13948364    -0.058155781   -0.062115828    136.35365     -15.615366     -8.3964068      11.944549     -13.217631     -11.80187       68.661569      50.601779      58.304063      1              202571.49      1.1848629      12503.602      22203.748     -2679.5062      404.78323      563.74489      24739.78      -19690.131      5613.3939      748.4        
    748600   297.76114      38226.914      18691.324      56918.238     -999.51744     -2071.5486     -164.59983     -762.40386      0.13951843     0.14972       -0.055782602   -0.059303615    0.13951843    -0.057398845   -0.061134842    159.3941       3.0769318      35.136251      1.9122375     -10.156047      14.145404      68.663958      50.640095      58.361286      1              202930.91      1.1827643      12730.957      22295.576     -2617.2597      418.23867      394.73783      24689.344     -19684.68       5399.4021      748.6        
    748800   298.08108      38206.833      18711.407      56918.24      -407.38925     -2096.2232      434.43618      439.61928      0.13955322     0.14976       -0.056493455   -0.060137494    0.13955322    -0.058151977   -0.062021685    153.36935      14.062704     -4.1126386     -16.747392      2.0642553      14.094156      68.666347      50.601971      58.309552      1              202605.43      1.1846644      12557.829      22179.404     -2490.473       387.21864      590.24666      24672.275     -19689.667      5572.8542      748.8        
    749000   296.28301      38205.032      18598.537      56803.57      -229.5853      -1315.5456      448.35327      178.43639      0.13958801     0.1498        -0.057701086   -0.060589699    0.13958801    -0.059432736   -0.062502939    136.82967      1.4843389     -2.1560269      3.2058066     -1.3681026      13.430779      68.668736      50.537204      58.281497      1              202255.79      1.1867123      12509.858      22366.525     -2668.3962      417.99588      575.02959      24689.245     -19685.225      5579.0496      749          
    749200   294.79003      38072.87       18504.819      56577.689     -601.97713      16.599327     -595.21211     -1227.3186      0.1396228      0.14984       -0.057836741   -0.061828944    0.1396228     -0.059576709   -0.063822984    136.43597     -23.244861      8.2039469     -2.4785003     -15.479708     -4.0500489      68.671125      50.529928      58.204614      1              201966.93      1.1884096      12709.79       22245.844     -2818.3752      407.80081      564.13204      24649.031     -19685.353      5527.8104      749.2        
    749400   299.99842      38075.873      18831.764      56907.638     -625.56406     -1524.5298     -383.81897      31.656619      0.13965759     0.14988       -0.057151539   -0.062980506    0.13965759    -0.058849708   -0.065051192    112.38715     -9.1663915     -18.486958      10.73353      -16.090906     -5.3311095      68.673514      50.566677      58.13317       1              201872.75      1.1889641      12629.4        22213.771     -2658.8833      407.97651      530.41231      24637.98      -19684.784      5483.609       749.4        
    749600   299.05241      37983.723      18772.381      56756.104     -604.16652     -1869.8551     -519.91489      577.2704       0.13969237     0.14992       -0.055883043   -0.061826799    0.13969237    -0.057505226   -0.063820698    136.2466       0.59569796    -27.38945       20.732526     -4.7928879     -9.2078531      68.675903      50.634708      58.204747      1              202400.27      1.1858652      12551.768      22135.592     -2605.0141      432.24393      483.06054      24673.194     -19687.12       5469.1346      749.6        
    749800   296.99223      38063.918      18643.057      56706.975     -771.18049     -1894.7582      398.54496     -817.3282       0.13972716     0.14996       -0.055188637   -0.060105158    0.13972716    -0.056769987   -0.06198728     169.85159      31.472275      27.450774     -0.25319217     13.004858     -1.1908339      68.678292      50.671951      58.311558      1              202927.9       1.1827819      12618.002      22136.402     -2666.3722      418.68324      557.78731      24686.631     -19687.216      5557.2027      749.8        
    750000   298.26048      38100.196      18722.669      56822.865     -958.53584     -1510.3799     -663.6399      -701.58775      0.13976194     0.15          -0.055907212   -0.059500837    0.13976194    -0.057530825   -0.06134452     121.03174     -12.074172      4.6964426      17.727073     -2.8537086      8.5108591      68.680681      50.633412      58.349051      1              202911         1.1828804      12485.057      22253.741     -2619.8465      412.56936      559.59631      24694.308     -19685.229      5568.6751      750          
Loop time of 18363.7 on 16 procs for 750000 steps with 21060 atoms

Performance: 3.529 ns/day, 6.801 hours/ns, 40.841 timesteps/s, 860.120 katom-step/s
98.9% CPU use with 16 MPI tasks x no OpenMP threads

MPI task timing breakdown:
Section |  min time  |  avg time  |  max time  |%varavg| %total
---------------------------------------------------------------
Pair    | 12141      | 12584      | 12945      | 221.7 | 68.53
Bond    | 2427.4     | 2510.7     | 2602.4     |  86.1 | 13.67
Kspace  | 940.4      | 1391.7     | 1885.5     | 766.2 |  7.58
Neigh   | 1129.2     | 1129.4     | 1129.6     |   0.3 |  6.15
Comm    | 231.95     | 233.03     | 234.3      |   5.2 |  1.27
Output  | 96.063     | 96.07      | 96.127     |   0.2 |  0.52
Modify  | 267.17     | 350.33     | 390.35     | 250.4 |  1.91
Other   |            | 68.68      |            |       |  0.37

Nlocal:        1316.25 ave        1357 max        1260 min
Histogram: 1 1 0 2 1 4 2 1 2 2
Nghost:        13371.2 ave       13436 max       13320 min
Histogram: 3 3 1 1 0 2 2 0 3 1
Neighs:         784845 ave      820036 max      744509 min
Histogram: 2 1 1 0 3 2 1 3 2 1

Total # of neighbors = 12557523
Ave neighs/atom = 596.27365
Ave special neighs/atom = 5.8019943
Neighbor list builds = 36325
Dangerous builds = 0

#-------------------Wrap up-------------------
write_restart  ${myid}.restart
write_restart  tensile_1_EPON_862_pxld_86.8_replicate_4_FF_PCFF.restart
System init for write_restart ...
PPPM initialization ...
  using 12-bit tables for long-range coulomb (../kspace.cpp:342)
  G vector (1/distance) = 0.1793708
  grid = 16 15 15
  stencil order = 5
  estimated absolute RMS force accuracy = 0.023660857
  estimated relative force accuracy = 7.1253967e-05
  using double precision KISS FFT
  3d grid and FFT values/proc = 1690 256
Generated 66 of 66 mixed pair_coeff terms from sixthpower/sixthpower mixing rule
write_data     ${myid}.data
write_data     tensile_1_EPON_862_pxld_86.8_replicate_4_FF_PCFF.data
System init for write_data ...
PPPM initialization ...
  using 12-bit tables for long-range coulomb (../kspace.cpp:342)
  G vector (1/distance) = 0.1793708
  grid = 16 15 15
  stencil order = 5
  estimated absolute RMS force accuracy = 0.023660857
  estimated relative force accuracy = 7.1253967e-05
  using double precision KISS FFT
  3d grid and FFT values/proc = 1690 256
Generated 66 of 66 mixed pair_coeff terms from sixthpower/sixthpower mixing rule
Total wall time: 5:06:04
