thermo_style   custom step temp pe ke etotal press pxx pyy pzz v_etrue v_eengx v_eengy v_eengz v_etruex v_etruey v_etruez                f_sxx_ave f_syy_ave f_szz_ave f_sxy_ave f_sxz_ave f_syz_ave lx ly lz v_dir vol density ebond eangle edihed                eimp evdwl ecoul elong epair v_Time

restart        ${nsteps} rst1.a.${myid} rst2.a.${myid}
restart        200 rst1.a.${myid} rst2.a.${myid}
restart        200 rst1.a.tensile_2_EPON_862_pxld_88.2_replicate_1_FF_PCFF-class2xe rst2.a.${myid}
restart        200 rst1.a.tensile_2_EPON_862_pxld_88.2_replicate_1_FF_PCFF-class2xe rst2.a.tensile_2_EPON_862_pxld_88.2_replicate_1_FF_PCFF-class2xe
dump           6 all atom 10000 dump.${myid} #every picosecond
dump           6 all atom 10000 dump.tensile_2_EPON_862_pxld_88.2_replicate_1_FF_PCFF-class2xe 
dump_modify    6 scale no sort id

#-------------------Run-------------------
run            ${steps}
run            750000

CITE-CITE-CITE-CITE-CITE-CITE-CITE-CITE-CITE-CITE-CITE-CITE-CITE

Your simulation uses code contributions which should be cited:

- Type Label Framework: https://doi.org/10.1021/acs.jpcb.3c08419

@Article{Gissinger24,
 author = {Jacob R. Gissinger, Ilia Nikiforov, Yaser Afshar, Brendon Waters, Moon-ki Choi, Daniel S. Karls, Alexander Stukowski, Wonpil Im, Hendrik Heinz, Axel Kohlmeyer, and Ellad B. Tadmor},
 title = {Type Label Framework for Bonded Force Fields in LAMMPS},
 journal = {J. Phys. Chem. B},
 year =    2024,
 volume =  128,
 number =  13,
 pages =   {3282–-3297}
}

CITE-CITE-CITE-CITE-CITE-CITE-CITE-CITE-CITE-CITE-CITE-CITE-CITE

PPPM initialization ...
  using 12-bit tables for long-range coulomb (../kspace.cpp:342)
  G vector (1/distance) = 0.18107008
  grid = 15 15 15
  stencil order = 5
  estimated absolute RMS force accuracy = 0.022075831
  estimated relative force accuracy = 6.6480709e-05
  using double precision KISS FFT
  3d grid and FFT values/proc = 1690 256
Generated 66 of 66 mixed pair_coeff terms from sixthpower/sixthpower mixing rule
Neighbor list info ...
  update: every = 1 steps, delay = 0 steps, check = yes
  max neighbors/atom: 5000, page size: 100000
  master list distance cutoff = 14
  ghost atom cutoff = 14
  binsize = 7, bins = 9 9 9
  1 neighbor lists, perpetual/occasional/extra = 1 0 0
  (1) pair lj/class2/coul/long, perpetual
      attributes: half, newton on
      pair build: half/bin/newton
      stencil: half/bin/3d
      bin: standard
WARNING: Inconsistent image flags (../domain.cpp:1051)
WARNING: Bond/angle/dihedral extent > half of periodic box length (../domain.cpp:1172)
Per MPI rank memory allocation (min/avg/max) = 19.08 | 19.45 | 19.49 Mbytes
   Step          Temp          PotEng         KinEng         TotEng         Press           Pxx            Pyy            Pzz          v_etrue        v_eengx        v_eengy        v_eengz        v_etruex       v_etruey       v_etruez      f_sxx_ave      f_syy_ave      f_szz_ave      f_sxy_ave      f_sxz_ave      f_syz_ave          Lx             Ly             Lz           v_dir          Volume        Density         E_bond        E_angle        E_dihed        E_impro         E_vdwl         E_coul         E_long         E_pair         v_Time    
         0   298            24402.281      18706.318      43108.599      58.237664      109.9049       298.26953     -233.46143      0              7.2931796e-16 -3.7167195e-16 -6.0281919e-16  6.6613381e-16 -3.3306691e-16 -5.5511151e-16  0              0              0              0              0              0              58.455388      57.35241       58.93498       2              197582.9       1.2147784      9225.311       20489.258     -7908.5989      403.05691     -2855.2114      24995.792     -19947.327      2193.2541      0            
       200   301.47514      24843.359      18924.462      43767.821     -1311.7101     -1434.0539     -1729.7776     -771.29893      3.99992e-05    0.00010125189  4e-05          0.00016698576  0.00010124677  3.99992e-05    0.00016697182 -1.3074166     -4.8916938     -0.46645959     14.041936     -12.82548      -12.032777      58.461307      57.354704      58.944821      2              197643.81      1.214404       9417.0987      20628.304     -7778.0487      391.48183     -2840.7222      24974.529     -19949.285      2184.5224      0.2          
       400   299.13736      25009.988      18777.714      43787.701     -506.4348      -432.91619      109.87985     -1196.2681      7.99968e-05    0.0013816603   8e-05          0.0012808866   0.0013807067   7.99968e-05    0.0012800669  -15.058255     -18.167302     -8.8291822      13.17994      -6.4595486     -15.54037       58.536154      57.356998      59.010469      2              198125.18      1.2114535      9515.752       20585.254     -7746.6004      402.15439     -2803.2195      25001.111     -19944.464      2253.4278      0.4          
       600   297.17702      24976.596      18654.657      43631.253      175.05924      144.01042     -284.23478      665.40208      0.0001199928   0.0026603647   0.00012        0.0016585553   0.0026568322   0.0001199928   0.0016571815   12.503394     -5.2825088      15.304225      3.0694493     -10.436699     -9.562569       58.610901      57.359293      59.032727      2              198460.93      1.209404       9530.7417      20490.623     -7756.4905      405.18635     -2799.329       25052.952     -19947.087      2306.5355      0.6          
       800   300.04899      24984.372      18834.939      43819.311     -540.19004     -950.77803     -97.26528      -572.52682      0.0001599872   0.0028124143   0.00016        5.6825057e-05  0.0028084669   0.0001599872   5.6823443e-05  20.446477      35.340091      30.401185      19.223035     -9.0980486      4.0423294      58.619789      57.361587      58.938329      2              198181.55      1.2111089      9383.9349      20640.277     -7640.9506      386.51141     -2857.8755      25022.61      -19950.135      2214.5996      0.8          
      1000   296.07729      24918.618      18585.624      43504.241     -69.75274      -327.96601      267.70456     -148.99677      0.00019998     0.0022886666   0.0002        -0.0026425644   0.0022860516   0.00019998    -0.0026460621  -8.2000475     -18.328591     -19.080339      20.791737     -3.7443142      2.023666       58.589173      57.363881      58.77924       2              197551.29      1.2149728      9588.0546      20514.399     -7806.1343      398.96293     -2789.6371      24960.912     -19947.94       2223.3349      1            
      1200   301.59668      24869.03       18932.092      43801.122      330.27086     -825.15182      723.23978      1092.7246      0.0002399712   0.0020209915   0.00024       -0.0045221158   0.002018952    0.0002399712  -0.0045323715  -10.748844      2.3533351     -17.805826      8.4433174     -5.5478118     -25.154193      58.573526      57.366175      58.668469      2              197134.22      1.2175433      9562.7069      20473.476     -7808.2748      382.14832     -2794.4163      25001.033     -19947.643      2258.9731      1.2          
      1400   298.82909      24870.334      18758.363      43628.696      269.71859     -812.34702      938.66389      682.8389       0.00027996081  0.002200525    0.00028       -0.0045154125   0.0021981074   0.00027996081 -0.0045256378  -3.0369178     -15.424317     -8.7065246      25.671497     -0.22091714    -24.209798      58.584021      57.368469      58.668864      2              197178.75      1.2172683      9567.7897      20553.754     -7898.642       398.01155     -2838.0675      25035.034     -19947.546      2249.4202      1.4          
      1600   298.47396      24896.767      18736.07       43632.837     -331.48857     -706.133        289.67962     -578.01233      0.00031994881  0.0025266261   0.00032       -0.0038674372   0.0025234396   0.00031994881 -0.003874935    14.880559     -10.924445      0.60339398     10.839391      6.1963738     -6.0780962      58.603083      57.370763      58.707053      2              197379.19      1.2160321      9429.1311      20568.747     -7742.3173      380.22663     -2824.7438      25028.271     -19942.548      2260.9796      1.6          
      1800   295.34024      24873.285      18539.357      43412.642      675.61646      100.77963      705.13724      1220.9325      0.00035993522  0.002129525    0.00036       -0.003114017    0.0021272608   0.00035993522 -0.0031188757  -4.0508707     -0.12140181    -8.3294031      21.285961      4.7024997     -10.724139      58.57987       57.373057      58.751455      2              197458.13      1.215546       9465.6484      20616.355     -7882.0098      390.00953     -2840.7745      25065.34      -19941.284      2283.2816      1.8          
      2000   299.65478      25010.623      18810.193      43820.816     -1210.5361     -265.83546     -1202.2584     -2163.5144      0.00039992002  0.001720916    0.0004        -0.0013661362   0.0017194369   0.00039992002 -0.0013670702  -1.9947357     -4.0163861      14.061167      13.756515     -14.610916     -5.4084443      58.555985      57.375351      58.854467      2              197731.6       1.2138649      9468.4165      20502.263     -7601.5346      401.98084     -2841.0977      25025.316     -19944.722      2239.4967      2            
      2200   299.93344      25047.881      18827.685      43875.566      133.59196      594.59875      1220.4232     -1414.2461      0.00043990323 -0.00010845527  0.00044       -0.0005154681  -0.00010846116  0.00043990323 -0.000515601    17.346667      1.6514945      15.725238      23.521215     -2.8528045     -3.7419858      58.449048      57.377645      58.904601      2              197546.52      1.2150021      9642.4637      20699.879     -8005.3909      400.40679     -2763.6087      25021.296     -19947.166      2310.5218      2.2          
      2400   297.88748      24993.25       18699.255      43692.505      612.63859      750.6094       322.50897      764.7974       0.00047988484 -0.0029672558   0.00048        0.00021087218 -0.0029716669   0.00047988484  0.00021084995  0.4512394     -2.6027507      1.2253536      23.352231      0.39095832    -5.7034546      58.281936      57.379939      58.947408      2              197132.74      1.2175524      9532.162       20741.89      -8005.3457      398.7105      -2767.4546      25037.68      -19944.392      2325.8337      2.4          
      2600   298.46235      24895.154      18735.341      43630.495     -481.14762     -317.61455     -153.50989     -972.31842      0.00051986485 -0.004802675    0.00052        0.0010637781  -0.0048142449   0.00051986485  0.0010632127  -40.324952     -18.518012     -7.9221177      13.046425     -7.0394199     -18.913576      58.174646      57.382234      58.997674      2              196945.51      1.2187099      9456.0732      20708.265     -7842.1641      378.1987      -2897.0251      25037.869     -19946.062      2194.7814      2.6          
      2800   298.26294      24917.326      18722.823      43640.149     -353.70672      769.12146      75.484197     -1905.7258      0.00055984326 -0.0047120515   0.00056        0.001067237   -0.0047231882   0.00055984326  0.0010666679  -39.527454      17.896267      23.270098     -3.6746219     -13.936769     -12.860442      58.179943      57.384528      58.997878      2              196972         1.218546       9571.9838      20538.176     -7778.4398      385.79054     -2880.1042      25024.645     -19944.726      2199.8151      2.8          
      3000   297.91436      24706.215      18700.942      43407.157      338.24278      560.01645      926.41086     -471.69897      0.00059982007 -0.00076016287  0.0006        -0.0008489749  -0.00076045194  0.00059982007 -0.00084933548 -14.885535      0.82004895     11.462945      22.090278     -6.8649904     -1.25032        58.410952      57.386822      58.884946      2              197383.45      1.2160059      9383.4356      20540.799     -7790.0703      390.06787     -2878.7198      25007.479     -19946.777      2181.982       3            
      3200   297.71612      25020.734      18688.498      43709.232     -495.93862     -1250.09       -148.34289     -89.382938      0.00063979529  0.0035117837   0.00064       -0.0021795707   0.0035056318   0.00063979529 -0.0021819494   10.809923      12.111695     -16.76114       24.81674       5.2023239     -16.153851      58.660671      57.389116      58.806527      2              197971.23      1.2123955      9643.048       20504.146     -7694.137       394.57563     -2902.1183      25022.336     -19947.117      2173.101       3.2          
      3400   297.01213      24906.66       18644.306      43550.967      498.61885      1028.6452      597.77069     -130.55932      0.0006797689   0.004027687    0.00068       -0.003247465    0.0040195976   0.0006797689  -0.0032527495   35.268334      4.7426356      15.152475      14.337216      1.2576861     -12.052124      58.690828      57.39141       58.743591      2              197868.94      1.2130223      9538.0515      20586.595     -7827.0408      396.44978     -2858.2546      25021.317     -19950.457      2212.6048      3.4          
      3600   299.62054      24681.947      18808.044      43489.991      375.97645      741.8377       30.618994      355.47265      0.00071974092  0.0023660509   0.00072       -0.004266178    0.0023632563   0.00071974092 -0.0042753041   10.545243      18.359072      2.4808783      8.6231606      11.496658     -10.39725       58.593697      57.393704      58.683553      2              197347.46      1.2162276      9530.4338      20551.899     -8041.6492      388.15033     -2811.5818      25016.823     -19952.128      2253.1133      3.6          
      3800   298.99445      25012.461      18768.742      43781.203      373.81791     -72.743565      622.33837      571.85894      0.00075971135  0.00020353666  0.00076       -0.0049373873   0.00020351595  0.00075971135 -0.0049496165   5.0211997     -43.051574     -23.254633      7.7735337     -6.6478807     -18.022668      58.467286      57.395998      58.643995      2              196796.83      1.2196306      9622.1424      20657.719     -7890.5763      406.61938     -2784.5722      24948.778     -19947.65       2216.5563      3.8          
      4000   294.96985      25097.65       18516.107      43613.756      80.794562     -43.565253     -508.67399      794.62293      0.00079968017 -4.5895419e-05  0.0008        -0.0029841388  -4.5896472e-05  0.00079968017 -0.0029886002  -22.426711     -20.762604     -19.013692      22.234145      2.1769485     -18.113392      58.452705      57.398292      58.75911       2              197141.83      1.2174962      9505.5374      20825.008     -7891.9531      397.07749     -2803.7861      25013.73      -19947.964      2261.9796      4            
      4200   297.49751      25067.858      18674.775      43742.633     -128.57877     -628.27897      17.806686      224.73599      0.0008396474   0.00059143744  0.00084       -0.0016770556   0.00059126261  0.0008396474  -0.0016784634   1.1687746     -2.8297976      15.90776       2.186593       2.2756785     -1.3097152      58.489961      57.400586      58.836143      2              197534         1.2150791      9449.4144      20704.778     -7700.4177      397.18482     -2866.113       25027.758     -19944.747      2216.898       4.2          
      4400   296.69293      24954.396      18624.269      43578.665      949.99825      1745.9923      58.335014      1045.6675      0.00087961303  8.1799341e-05  0.00088       -0.00076662249  8.1795996e-05  0.00087961303 -0.00076691649 -5.0130489     -14.300256     -15.355998      9.8565739      2.5069785      5.4906302      58.46017       57.40288       58.889799      2              197621.34      1.2145421      9462.1044      20758.788     -7939.5654      390.6929      -2771.9416      25002.289     -19947.972      2282.3755      4.4          
      4600   298.97535      24879.032      18767.543      43646.575     -744.05098     -328.1384      -1164.4536     -739.56095      0.00091957706  0.0012130251   0.00092        0.00015959188  0.00121229     0.00091957706  0.00015957915  6.0995297      24.34924       23.625797      9.5454794     -1.4329441     -11.591453      58.526296      57.405175      58.944385      2              198036.17      1.211998       9407.4912      20705.308     -7821.5446      404.57695     -2840.4052      24973.919     -19950.314      2183.2002      4.6          
      4800   295.58319      24654.143      18554.608      43208.751     -97.999331      49.373214      333.72812     -677.09933      0.00095953949  0.0016916193   0.00096       -0.00030974348  0.0016901901   0.00095953949 -0.00030979146  2.0677145      10.2639       -1.7216117      23.422559      7.9800506     -5.8077247      58.554272      57.407469      58.916725      2              198045.78      1.2119392      9672.1143      20582.135     -8222.9713      367.91159     -2800.8423      25001.79      -19945.994      2254.9534      4.8          
      5000   300.42467      24873.416      18858.522      43731.938     -382.77958     -592.28123     -34.603762     -521.45375      0.00099950033  0.0008836674   0.001         -0.00094278669  0.0008832772   0.00099950033 -0.00094323139 -5.9155818      25.59552      -5.4880262      0.22848568    -0.84694477    -1.3711867      58.507043      57.409763      58.879417      2              197768.63      1.2136376      9419.4613      20839.718     -7926.7449      387.36039     -2869.4571      24969.408     -19946.329      2153.6214      5            
      5200   296.52424      24978.492      18613.68       43592.172      1128.6898      1916.0623      469.28814      1000.7189      0.0010394596   0.00037004967  0.00104       -0.0012872874   0.00036998122  0.0010394596  -0.0012881167   6.1040385     -16.789306     -3.5901035      2.0016421      11.40931      -6.6038873      58.47702       57.412057      58.859114      2              197606.88      1.214631       9617.1875      20722.934     -8038.6859      406.30943     -2756.4891      24975.07      -19947.834      2270.7473      5.2          
      5400   297.8012       24866.328      18693.839      43560.166     -22.42033       131.7846      -507.13317      308.08758      0.0010794172  -0.00048961036  0.00108       -0.0015311576  -0.00048973026  0.0010794172  -0.0015323311   22.259938      7.6666654      8.5692624      28.006817      13.575558     -7.8236546      58.426768      57.414351      58.844741      2              197396.74      1.215924       9516.7426      20774.033     -8032.5613      382.6698      -2840.2321      25012.39      -19946.715      2225.4435      5.4          
      5600   298.57532      25034.429      18742.433      43776.862     -470.81576      371.02598     -1438.4774     -344.99588      0.0011193733  -0.0022592366   0.00112       -0.0021463788  -0.0022617925   0.0011193733  -0.0021486856  -24.621529     -14.940321      0.071021331    8.3785832      10.487533     -7.1027214      58.323324      57.416645      58.808483      2              196933.71      1.2187829      9347.8771      20713.604     -7554.5064      400.54781     -2910.8123      24988.671     -19950.952      2126.9067      5.6          
      5800   295.89738      24868.046      18574.331      43442.376      291.0197       172.25956      1084.5442     -383.74466      0.0011593277  -0.0028703161   0.00116       -0.0015597862  -0.0028744434   0.0011593277  -0.001561004   -13.380043     -23.691441     -7.9835308      10.239579      2.2535127     -1.8677851      58.287603      57.418939      58.843054      2              196936.66      1.2187647      9511.0466      20712.681     -7916.7105      404.02629     -2855.2257      24960.221     -19947.993      2157.0021      5.8          
      6000   300.10876      25015.406      18838.691      43854.096     -764.76761     -2073.3158     -833.41065      612.42359      0.0011992806  -0.0019907702   0.0012        -0.0013153976  -0.0019927544   0.0011992806  -0.0013162635  -3.2238304      14.366325     -7.2373674      4.4343592      5.5742623      5.1974244      58.339017      57.421233      58.857457      2              197166.49      1.217344       9422.7716      20689.226     -7654.8401      421.80896     -2920.8731      25006.021     -19948.709      2136.4394      6            
      6200   296.30418      25117.68       18599.867      43717.547     -1561.3998     -1680.1854     -1674.8085     -1329.2056      0.0012392318  -0.00079592235  0.00124        5.9195553e-05 -0.00079623927  0.0012392318   5.9193801e-05  21.300968      27.26501       15.001023      16.302801     -3.7393416     -7.7659936      58.408862      57.423527      58.938469      2              197682.15      1.2141685      9456.1486      20675.871     -7610.2895      405.44042     -2888.6328      25028.022     -19948.88       2190.5092      6.2          
      6400   297.75068      24867.367      18690.668      43558.034     -447.53961     -683.78859     -157.05682     -501.77341      0.0012791815  -0.0010939945   0.00128        0.00094032187 -0.0010945934   0.0012791815   0.00093988004 -3.4044628     -3.5515504     -5.9880233      17.508765      0.71581652    -26.748233      58.391438      57.425821      58.990398      2              197805.2       1.2134132      9525.2436      20617.809     -7825.4156      390.66173     -2871.2083      24976.835     -19946.559      2159.0682      6.4          
      6600   296.74582      24888.658      18627.589      43516.247     -147.27258      741.78526     -825.9655      -357.63751      0.0013191296  -0.0031886979   0.00132        0.0016478669  -0.0031937926   0.0013191296   0.0016465106   17.512273      32.927555      17.715994      7.0624567     -10.842167     -19.678236      58.268992      57.428115      59.032097      2              197537.83      1.2150556      9312.4344      20760.615     -7773.5638      403.9816      -2857.6843      24992.924     -19950.049      2185.1903      6.6          
      6800   298.21407      24912.351      18719.756      43632.107      58.362106      862.34125      389.74464     -1076.9996      0.001359076   -0.0055761927   0.00136        0.0013859958  -0.0055917977   0.001359076    0.0013850362  -14.728203     -10.488741     -10.732123      3.2967363     -4.4740261     -14.728222      58.12943       57.43041       59.016664      2              197021.05      1.2182426      9434.6861      20549.29      -7735.0103      413.17257     -2755.2082      24955.917     -19950.496      2250.213       6.8          
      7000   301.39911      24941.205      18919.69       43860.895     -13.672917      524.53384     -283.824       -281.7286       0.0013990209  -0.0050933035   0.0014         0.0024284974  -0.0051063186   0.0013990209   0.0024255534  -48.771448     -20.890727     -6.8917826      8.5041855     -7.4572743     -11.37815       58.157657      57.432704      59.078103      2              197329.81      1.2163364      9513.8213      20737.22      -7938.1541      393.72064     -2805.3292      24988.212     -19948.286      2234.5967      7            
      7200   298.28182      24988.304      18724.008      43712.313      104.81003      486.98491      466.28391     -638.83872      0.0014389642  -0.0031010274   0.00144        0.0028368862  -0.0031058455   0.0014389642   0.0028328699   18.382733      18.7412        36.684248     -5.7376288     -14.430533     -9.5598961      58.274116      57.434998      59.102172      2              197813.42      1.2133628      9424.4087      20813.718     -7862.439       380.71269     -2855.2041      25034.204     -19947.096      2231.9043      7.2          
      7400   298.35282      24965.531      18728.466      43693.996     -359.05987     -174.12393     -45.080817     -857.97487      0.0014789059  -0.0010414937   0.00148        0.0013139786  -0.0010420364   0.0014789059   0.001313116   -5.1349857      11.528676      6.5926223      0.78734637     6.8076833     -20.134637      58.394507      57.437292      59.012419      2              197928.97      1.2126544      9215.7177      20724.758     -7517.1848      381.32439     -2886.058       24996.584     -19949.61       2160.9153      7.4          
      7600   297.07858      25002.727      18648.478      43651.204      298.24827      106.61427      108.38727      679.74327      0.001518846    0.00044401049  0.00152       -0.00073103675  0.00044391195  0.001518846   -0.00073130409  3.346831      -0.91791724    -6.0485113      6.3243399      2.0259147     -11.397815      58.481343      57.439586      58.891896      2              197826.37      1.2132834      9496.6451      20729.002     -7844.7665      412.8321      -2791.9793      24950.676     -19949.682      2209.0143      7.6          
      7800   296.69646      24823.612      18624.491      43448.103     -20.641744     -741.52214     -129.46714      809.06404      0.0015587845   0.0011138373   0.00156       -0.0030660302   0.0011132175   0.0015587845  -0.0030707401   7.3133595     -0.99722777    -6.6328814      6.0030082     -7.0587213     -16.443063      58.520498      57.44188       58.754284      2              197504.14      1.2152629      9351.303       20637.414     -7709.692       392.24468     -2848.921       24951.055     -19949.792      2152.3427      7.8          
      8000   299.53133      24832.972      18802.444      43635.415     -448.3579      -662.80126     -971.66631      289.39386      0.0015987214   0.001209884    0.0016        -0.0036579533   0.0012091527   0.0015987214  -0.00366466     3.0395973      23.188375     -14.771497      13.376158     -7.6082416     -5.7833208      58.526112      57.444174      58.719399      2              197413.69      1.2158196      9541.3087      20569.816     -7897.7818      407.26168     -2848.5385      25005.936     -19945.031      2212.3671      8            
      8200   299.15557      24798.803      18778.857      43577.659      286.51171      398.14802     -319.37212      780.75924      0.0016386567   0.00095906498  0.00164       -0.0030984729   0.00095860537  0.0016386567  -0.0031032831   16.71352       33.416233     -1.0700408     -0.048068627   -2.9668007     -6.8720909      58.511451      57.446468      58.752371      2              197482.95      1.2153932      9274.4692      20726.331     -7890.3278      413.1333      -2804.8925      25027.828     -19947.738      2275.1969      8.2          
      8400   298.06615      24916.224      18710.471      43626.694      520.15513      1192.258       90.45176       277.75565      0.0016785904  -0.00010748901  0.00168       -0.00278751    -0.00010749479  0.0016785904  -0.0027914023  -7.8074557      0.82468244     4.0832801      14.681524     -4.5704028     -10.187056      58.449105      57.448762      58.770698      2              197341.94      1.2162617      9423.7675      20655.526     -7716.2518      400.85002     -2897.8772      24997.603     -19947.393      2152.3325      8.4          
      8600   299.94606      25008.242      18828.478      43836.72       484.60144      338.32979      848.21632      267.25822      0.0017185225  -0.00022453754  0.00172       -0.0019371096  -0.00022456276  0.0017185225  -0.0019389882  -8.3585504      5.7403433     -8.8356546      3.0612739     -12.675556      4.9851754      58.442263      57.451056      58.820816      2              197494.99      1.2153191      9544.0669      20683.853     -7886.6873      420.95509     -2804.1564      24994.145     -19943.934      2246.0539      8.6          
      8800   297.30834      25011.05       18662.901      43673.951     -526.8534      -1388.2435     -555.63752      363.32083      0.001758453    0.00018331313  0.00176       -0.00067658365  0.00018329633  0.001758453   -0.00067681263  6.0687291      4.2573459      2.3032719      9.1375667     -15.36215       2.6796989      58.466104      57.453351      58.895105      2              197832.99      1.2132427      9410.2917      20632.738     -7672.0576      401.81242     -2854.6858      25038.591     -19945.639      2238.2657      8.8          
      9000   296.1849       24897.159      18592.379      43489.538      964.11946      2104.0554      245.25113      543.05183      0.0017983819  -0.0013381301   0.0018        -0.00011486207 -0.0013390262   0.0017983819  -0.00011486867  12.936041      19.292503      21.167825      2.0861336     -11.435111     -2.9957937      58.377167      57.455645      58.928211      2              197650.98      1.21436        9534.7955      20822.791     -8134.4978      411.82683     -2819.9907      25026.739     -19944.504      2262.2434      9            
      9200   295.02284      24999.335      18519.433      43518.768     -885.30042     -728.54046     -830.0672      -1097.2936      0.0018383093  -0.0031092859   0.00184       -0.0012037954  -0.0031141298   0.0018383093  -0.0012045206  -5.2785124      13.56122      -3.7746897      5.5121797      5.6874038      8.2705942      58.273634      57.457939      58.864034      2              197093.44      1.2177952      9376.1285      20638.61      -7622.9292      403.26446     -2836.4824      24987.571     -19946.827      2204.2619      9.2          
      9400   298.56739      25050.278      18741.934      43792.213      643.90651      224.26459      1028.9373      678.5177       0.001878235   -0.0031469047   0.00188       -0.0016807893  -0.0031518666   0.001878235   -0.0016822034  -31.351168     -8.6969101     -10.219896     -0.44237241    -2.7259108     -13.159645      58.271435      57.460233      58.835923      2              196999.74      1.2183744      9480.8339      20885.532     -7963.4388      407.29742     -2841.4562      25028.596     -19947.085      2240.0543      9.4          
      9600   300.14535      24969.625      18840.988      43810.613      464.47288      698.49426     -319.1923       1014.1167      0.0019181592  -0.0012407034   0.00192       -0.0022716861  -0.0012414737   0.0019181592  -0.0022742703  -8.1774992     -3.4742916      14.313507      13.855682     -3.2193375      0.31796679     58.382862      57.462527      58.801098      2              197267.5       1.2167206      9480.9191      20841.876     -7910.5168      408.25737     -2855.2763      24950.838     -19946.472      2149.0898      9.6          
      9800   297.70297      25008.012      18687.673      43695.685     -64.075478      44.730464      76.589141     -313.54604      0.0019580817   0.00054877346  0.00196       -0.0039748248   0.00054862294  0.0019580817  -0.0039827454   16.704452      39.410681      5.3789016     -0.50099826     4.9086635     -5.4897322      58.487467      57.464821      58.700724      2              197291.48      1.2165728      9433.8226      20821.996     -7883.5715      401.27238     -2832.6292      25011.888     -19944.766      2234.4928      9.8          
     10000   297.74526      24932.91       18690.327      43623.237     -401.04365     -425.49957     -436.61314     -341.01823      0.0019980027   0.0033739246   0.002         -0.0046273054   0.0033682457   0.0019980027  -0.0046380445  -17.787564      4.8592146     -27.919187      16.551998     -14.767183     -2.2349332      58.652612      57.467115      58.66227       2              197726.84      1.2138941      9373.865       20771.593     -7740.3057      393.06044     -2912.3387      24988.525     -19941.489      2134.697       10           
     10200   298.8557       24975.136      18760.033      43735.169     -147.20269     -61.185831     -857.73109      477.30887      0.002037922    0.0045775315   0.00204       -0.0057455623   0.0045670865   0.002037922   -0.0057621316   30.902117      24.584171      24.408847      9.0212973      0.25742969    -10.285632      58.722969      57.469409      58.596365      2              197749.51      1.2137549      9312.9946      20804.551     -7780.8877      411.98148     -2866.588       25036.238     -19943.154      2226.4967      10.2         
     10400   299.26169      24877.373      18785.518      43662.891     -853.26159     -1712.7103     -178.1338      -668.94071      0.0020778398   0.0038516424   0.00208       -0.0068492632   0.0038442438   0.0020778398  -0.006872827    18.240474      9.3772128     -11.975755      6.7247106     -0.12605865     5.8330424      58.680537      57.471703      58.531319      2              197395.14      1.2159339      9214.4772      20614.626     -7506.6742      430.45059     -2937.4754      25008.278     -19946.31       2124.4935      10.4         
     10600   298.94394      24659.434      18765.572      43425.006      588.84036      401.09898      1583.541      -218.1189       0.002117756    0.0019877515   0.00212       -0.0061744969   0.0019857785   0.002117756   -0.006193638   -8.8101236      1.6680463     -30.519346      16.717557      1.6392557     -14.929119      58.571583      57.473997      58.571086      2              197170.37      1.2173201      9416.9849      20679.848     -8029.4395      396.7211      -2846.435       24988.383     -19946.628      2195.3198      10.6         
     10800   295.47631      24914.275      18547.898      43462.173      916.73471      957.33267      971.38485      821.48663      0.0021576706   0.00086762542  0.00216       -0.0046554916   0.00086724925  0.0021576706  -0.0046663622  -18.008921     -21.576948     -5.2740054      1.4725914     -1.3354995     -3.522246       58.506105      57.476292      58.660609      2              197258.85      1.216774       9458.2885      20749.873     -7875.2564      403.63992     -2829.1789      24956.223     -19949.315      2177.7296      10.8         
     11000   298.11232      24959.288      18713.368      43672.657     -92.784616     -34.2128       -17.651895     -226.48915      0.0021975835   0.00138288     0.0022        -0.0015450362   0.0013819247   0.0021975835  -0.001546231    8.5135189      14.264514     -12.09061       2.3074667      8.6589746      1.0906055      58.536225      57.478586      58.843923      2              197985.05      1.2123109      9407.6744      20835.201     -7894.6803      401.08322     -2832.0171      24983.785     -19941.758      2210.0104      11           
     11200   297.8606       24733.524      18697.567      43431.091      38.741341      13.42784       63.877806      38.918377      0.0022374949   0.00059300692  0.00224        0.00023590265  0.00059283116  0.0022374949   0.00023587483  16.587328      16.170123      13.517144      19.187678     -8.526814      -17.646472      58.490053      57.48088       58.948883      2              198189.66      1.2110593      9256.469       20768.887     -7881.0647      403.85267     -2865.94        24996.145     -19944.824      2185.3801      11.2         
     11400   299.72653      25041.282      18814.697      43855.979      126.39973      243.41301     -373.77833      509.56453      0.0022774047  -0.00073069904  0.00228        0.0011173721  -0.00073096613  0.0022774047   0.0011167483   8.5396094      19.234707      6.3632436      28.781298      2.5344212     -16.080839      58.412675      57.483174      59.000832      2              198109.8       1.2115475      9399.9819      20780.891     -7829.2485      422.91524     -2785.8278      24998.063     -19945.492      2266.7431      11.4         
     11600   300.19932      24815.65       18844.376      43660.025      417.23631      988.60827      80.911426      182.18924      0.002317313   -0.0022083174   0.00232        0.00073957899 -0.0022107594   0.002317313    0.00073930564  8.6934093      20.651299      3.3092432      24.649361     -5.9053353     -19.306087      58.3263        57.485468      58.978567      2              197750.1       1.2137513      9311.8475      20671.8       -7959.5246      425.93485     -2737.3801      25043.196     -19940.224      2365.5924      11.6         
     11800   298.64904      24931.628      18747.06       43678.687     -442.86613     -333.61522     -130.96877     -864.01441      0.0023572196  -0.0037297852   0.00236        0.00040898536 -0.0037367582   0.0023572196   0.00040890175  16.413188     -10.371899     -2.2285762     -6.9501122     -11.072167     -10.350547      58.237362      57.487762      58.959083      2              197391.22      1.2159581      9281.5858      20732.936     -7739.7527      404.48884     -2831.5104      25029.983     -19946.102      2252.3701      11.8         
     12000   299.61447      24652.621      18807.663      43460.283      695.36511      356.76252      724.50317      1004.8296      0.0023971246  -0.0040892145   0.0024         0.0010200847  -0.0040975982   0.0023971246   0.0010195648  -29.633269     -7.4427849     -9.1902005      18.008351      6.5938512     -6.5255296      58.216351      57.490056      58.995099      2              197448.41      1.2156058      9210.8998      20560.829     -7771.9928      416.60026     -2853.0958      25037.83      -19948.45       2236.2844      12           
     12200   298.21882      25029.334      18720.054      43749.388     -530.02276     -471.591       -174.37928     -944.09799      0.002437028   -0.0038379594   0.00244        0.00036960834 -0.0038453432   0.002437028    0.00036954005  8.5448911      24.421369      27.305039      7.8769036     -4.3728997     -8.3282191      58.231039      57.49235       58.956763      2              197377.77      1.2160409      9261.4457      20726.367     -7566.576       421.95206     -2882.6392      25013.43      -19944.645      2186.1457      12.2         
     12400   299.80103      24695.291      18819.374      43514.665      348.48108      1683.2481     -1082.7054      444.90045      0.0024769299  -0.0042510094   0.00248       -0.0002147998  -0.0042600706   0.0024769299  -0.00021482287  1.4669079      11.42695      -25.749226     -1.3646337      12.73639      -13.363383      58.206894      57.494644      58.922321      2              197188.53      1.2172079      9176.0339      20621.156     -7721.2282      410.98664     -2828.1175      24983.038     -19946.578      2208.3424      12.4         
     12600   298.91565      24973.768      18763.796      43737.564     -579.53979      869.83428     -2203.0856     -405.36807      0.0025168301  -0.0037800444   0.00252        0.00046384301 -0.0037872068   0.0025168301   0.00046373547 -12.855434      10.17525      -0.37436055     1.5393145      11.84066      -19.472564      58.234424      57.496938      58.962317      2              197423.59      1.2157587      9396.4335      20643.967     -7629.7739      416.33295     -2875.9584      24968.567     -19945.8        2146.8087      12.6         
     12800   298.80109      24806.538      18756.605      43563.142      218.54145     -153.99001      1123.518      -313.90367      0.0025567288  -0.0037148881   0.00256        0.00037109286 -0.0037218054   0.0025567288   0.00037102403  7.866739      -14.125699      11.2931        10.908823      0.0092059853  -15.0907        58.238233      57.499232      58.95685       2              197426.07      1.2157434      9372.0208      20622.082     -7808.0865      394.33418     -2812.5309      24986.164     -19947.446      2226.1869      12.8         
     13000   300.12103      24681.687      18839.461      43521.147      3.89487        849.22022     -443.78652     -393.74909      0.0025966258  -0.0035228809   0.0026         0.00041827759 -0.0035291009   0.0025966258   0.00041819013 -0.53303769    -1.5114706      0.32233396     12.766911      7.6990811     -6.2187789      58.249457      57.501527      58.959631      2              197481.32      1.2154033      9256.0721      20628.049     -7834.8995      419.64795     -2849.7054      25007.608     -19945.086      2212.8166      13           
     13200   296.20529      24816.726      18593.659      43410.385      284.6543       838.57439      468.3659      -452.97738      0.0026365213  -0.0028521937   0.00264        7.9617211e-05 -0.0028562689   0.0026365213   7.9614041e-05 -12.561358      22.480192      4.7221053      1.0572377      11.50553      -7.5765939      58.288662      57.503821      58.939672      2              197555.22      1.2149486      9267.9906      20897.197     -7880.1426      398.05902     -2881.7804      24964.431     -19949.029      2133.6217      13.2         
     13400   294.95958      24692.169      18515.462      43207.631      6.4465633     -196.67849      876.45498     -660.4368       0.0026764152  -0.0017489771   0.00268       -0.0005704949  -0.0017505083   0.0026764152  -0.0005706577   6.8847547      1.9049135      1.5678356      10.023942     -0.22651631    -11.138746      58.353151      57.506115      58.901358      2              197653.11      1.2143469      9284.5775      20749.351     -7971.9138      401.92076     -2830.8151      25006.961     -19947.912      2228.2339      13.4         
     13600   297.61556      25091.299      18682.185      43773.484     -398.24575     -794.50098      502.69593     -902.93221      0.0027163075  -0.00072519716  0.00272       -0.0018117284  -0.00072546024  0.0027163075  -0.0018133716   4.3977081      7.0059507      8.3438392      9.4183194     -9.2057811     -1.2156582      58.412996      57.508409      58.828206      2              197617.97      1.2145628      9236.7013      20723.486     -7544.2344      400.93799     -2816.1646      25035.633     -19945.06       2274.4087      13.6         
     13800   298.86944      24885.435      18760.895      43646.33       280.35656      330.92845      834.65305     -324.51182      0.0027561982   0.00026218494  0.00276       -0.0033360386   0.00026215057  0.0027561982  -0.0033416156   7.7740101     -0.99795313    -10.650266     -2.7404177      6.6083827     -1.5120706      58.470714      57.510703      58.738371      2              197519.04      1.2151711      9367.436       20792.734     -7914.6347      418.9539      -2878.8365      25044.836     -19945.054      2220.9457      13.8         
     14000   300.60345      24882.201      18869.744      43751.945     -129.40753     -336.80142      24.523359     -75.944513      0.0027960873   0.00026948989  0.0028        -0.0041565428   0.00026945359  0.0027960873  -0.0041652052   3.648147       31.361256     -24.119455      5.4491292     -4.4791669     -5.3259023      58.471141      57.512997      58.690014      2              197365.75      1.216115       9219.3841      20840.196     -7811.3388      396.71961     -2828.3931      25014.73      -19949.097      2237.2397      14           
     14200   296.96448      24935.381      18641.315      43576.696     -792.01535     -531.10205     -1072.5985     -772.34547      0.0028359748  -0.00019560074  0.00284       -0.0044295853  -0.00019561987  0.0028359748  -0.004439425    7.4068832      29.080778      7.6005967      4.6012902     -1.1269843     -11.244069      58.443954      57.515291      58.673922      2              197227.76      1.2169658      9312.4806      20835.198     -7796.2224      408.23612     -2863.5154      24984.448     -19945.244      2175.6891      14.2         
     14400   298.40675      24658.267      18731.851      43390.118      38.219925      415.87004      256.51717     -557.72744      0.0028758607  -0.0010816941   0.00288       -0.0036832066  -0.0010822796   0.0028758607  -0.0036900063   2.2967013      7.5617864     -20.337858      4.9289387     -18.612888      1.5592441      58.392157      57.517585      58.71791       2              197208.56      1.2170843      9322.1456      20730.632     -7947.1938      416.54503     -2909.5703      24993.102     -19947.393      2136.1386      14.4         
     14600   297.29072      24932.429      18661.794      43594.223     -468.41509     -407.85448     -190.7985      -806.59229      0.0029157451  -0.0026592538   0.00292       -0.0014781249  -0.0026627959   0.0029157451  -0.0014792184  -5.8199428      16.453787      8.7751737      3.7242302      7.4702884     -6.1808662      58.29994       57.519879      58.847867      2              197340.76      1.2162689      9228.3957      20688.748     -7667.9858      408.36544     -2778.8293      25001.303     -19947.568      2274.9057      14.6         
     14800   298.76837      25023.855      18754.551      43778.406      123.39851      713.04259      499.91841     -842.76546      0.0029556278  -0.0028297315   0.00296       -9.8225987e-05 -0.0028337427   0.0029556278  -9.8230812e-05 -12.115977      5.9716069      1.9171939      3.2503881      7.2448019     -14.622065      58.289975      57.522173      58.929191      2              197587.58      1.2147496      9408.1059      20783.043     -7814.7387      415.19948     -2837.5877      25015.76      -19945.927      2232.2449      14.8         
     15000   297.07195      24994.464      18648.062      43642.525      502.41154      355.81657      309.10113      842.31692      0.002995509   -0.0023669008   0.003          0.00089018839 -0.0023697064   0.002995509    0.00088979241 -11.854877     -1.646066       2.5350073      23.984688     -6.6987401     -8.2394691      58.31703       57.524468      58.987443      2              197882.59      1.2129387      9336.223       20827.749     -7795.2925      391.8323      -2836.2688      25019.24      -19949.019      2233.9521      15           
     15200   296.80236      24971.375      18631.139      43602.514      282.96428      1459.6875     -354.89997     -255.89471      0.0030353885  -0.0016455131   0.00304        0.00021718808 -0.0016468684   0.0030353885   0.0002171645   8.9972757      28.251225      42.880235      3.5361651      3.6782778     -22.080254      58.359199      57.526762      58.94778       2              197900.41      1.2128294      9368.7325      20816.923     -7804.3596      414.37764     -2874.3109      24999.594     -19949.582      2175.7011      15.2         
     15400   300.58373      24567.021      18868.506      43435.527      798.88251      985.63027      798.96848      612.04878      0.0030752665  -0.0010767301   0.00308       -0.001928034   -0.0010773102   0.0030752665  -0.001929895   -8.2099063     -5.6053868     -23.47575       4.7559934     -6.6400374     -6.5506276      58.392447      57.529056      58.821351      2              197596.35      1.2146957      9438.5824      20649.544     -8210.912       405.10568     -2742.1762      24976.23      -19949.353      2284.7009      15.4         
     15600   297.76601      24701.537      18691.629      43393.166     -819.09099     -618.34123     -1422.8985     -416.03329      0.0031151429  -0.00066968093  0.00312       -0.0031047011  -0.00066990526  0.0031151429  -0.0031095307   9.8045582      5.9239677      4.9014439     -2.583135      -0.54608252    -8.738525       58.416242      57.53135       58.752004      2              197451.69      1.2155856      9321.8889      20687.009     -7789.4769      394.84192     -2989.9778      25024.834     -19947.582      2087.2744      15.6         
     15800   299.44959      24754.038      18797.313      43551.351      161.89681      50.337594      191.65593      243.69689      0.0031550177  -0.00029857811  0.00316       -0.0047039397  -0.00029862269  0.0031550177  -0.0047150381   1.1233853      33.601603     -7.7538936      5.9488526     -0.80543066    -3.6138819      58.437935      57.533644      58.657753      2              197216.01      1.2170383      9368.5869      20673.097     -7899.5943      391.40198     -2820.015       24991.037     -19950.476      2220.5465      15.8         
     16000   299.79074      24899.383      18818.728      43718.111      341.34847      763.12176     -802.74561      1063.6692      0.0031948909   0.0001921936   0.0032        -0.0059863019   0.00019217513  0.0031948909  -0.0060042916  -0.93757667    -8.2631681     -5.4242027      10.494066     -13.896495     -15.600192      58.466623      57.535938      58.582177      2              197066.46      1.2179619      9490.7247      20814.761     -8079.9358      394.49253     -2817.2102      25042.185     -19945.634      2279.3404      16           
     16200   298.04052      24786.733      18708.861      43495.594     -234.15688     -46.579937     -664.53173      8.6410152      0.0032347625   0.00089354203  0.00324       -0.0050010301   0.00089314305  0.0032347625  -0.0050135771   15.479439      19.958694     -35.058204      11.106509      0.033448616   -12.591911      58.50762       57.538232      58.640244      2              197407.99      1.2158548      9439.1723      20855.22      -8118.4927      414.63831     -2862.8588      25007.792     -19948.738      2196.1955      16.2         
     16400   297.6448       24864.585      18684.021      43548.606     -950.48981     -25.452058     -2241.1437     -584.87363      0.0032746325   0.0005866754   0.00328       -0.0027699773   0.00058650337  0.0032746325  -0.0027738208  -14.545041      2.2972882      8.3483721      3.6230769     -4.999692      -2.6545045      58.489682      57.540526      58.771731      2              197797.85      1.2134583      9366.8752      20734.442     -7822.0444      397.06795     -2817.537       24954.101     -19948.319      2188.2447      16.4         
     16600   297.59665      24706.377      18680.998      43387.375     -77.161302     -154.69598      225.3498      -302.13772      0.003314501    0.00088234545  0.00332       -0.0022481484   0.00088195641  0.003314501   -0.0022506793   7.0422562      34.848745      26.550611     -2.2751049      1.6806096     -9.4642816      58.506966      57.54282       58.802485      2              197967.73      1.212417       9343.4901      20713.569     -7912.9778      406.19155     -2853.9143      24960.275     -19950.257      2156.1037      16.6         
     16800   298.31835      24708.92       18726.302      43435.222      592.8571       337.36188      744.29449      696.91493      0.0033543678   0.00014650779  0.00336       -0.0034279262   0.00014649706  0.0033543678  -0.003433815    3.5838453      25.142703      6.7895473      1.6425358      14.234753     -13.66841       58.463952      57.545114      58.732955      2              197596.15      1.2146969      9327.7652      20604.562     -7872.6225      395.13556     -2726.9814      24930.123     -19949.062      2254.0795      16.8         
     17000   301.15595      25024.17       18904.426      43928.596      32.881249     -12.770509     -421.98178      533.39604      0.0033942331   0.0003568121   0.0034        -0.00352866     0.00035674846  0.0033942331  -0.0035349004  -1.9948629      14.446123     -11.520424      24.178017     -20.179964     -19.353556      58.476246      57.547408      58.727018      2              197625.6       1.2145159      9502.0544      20725.462     -7844.6745      399.89383     -2838.522       25021.685     -19941.729      2241.4343      17           
     17200   301.30031      24803.379      18913.488      43716.867      450.3747       906.50596      702.08246     -257.46431      0.0034340967  -0.00071738304  0.00344       -0.0043945156  -0.00071764048  0.0034340967  -0.0044041999   10.372552      26.904725      12.503865      12.149663      3.6944229     -24.781147      58.413453      57.549703      58.675989      2              197249.72      1.2168303      9321.8473      20758.21      -7915.4522      425.58215     -2862.9454      25018.105     -19941.967      2213.1921      17.2         
     17400   299.81857      24730.762      18820.475      43551.237      201.10828      1182.9341     -571.30424     -8.3050549      0.0034739588  -0.0025416734   0.00348       -0.005405548   -0.0025449089   0.0034739588  -0.0054202108  -7.437905       5.9503516     -22.330328      7.4027234     -4.9539322     -4.4631932      58.306814      57.551997      58.616404      2              196697.52      1.2202464      9303.9331      20676.024     -7901.8936      407.59234     -2815.6352      25006.497     -19945.756      2245.1063      17.4         
     17600   299.09314      24799.761      18774.938      43574.699     -255.41714     -781.23812     -923.73351      938.72022      0.0035138193  -0.0027022536   0.00352       -0.0039626156  -0.0027059113   0.0035138193  -0.0039704876  -11.188182     -8.404596      -14.120691      14.972808     -7.9872266     -16.399465      58.297427      57.554291      58.701443      2              196959.02      1.2186263      9386.8949      20767.201     -7933.8188      403.70865     -2898.7246      25019.621     -19945.121      2175.7752      17.6         
     17800   295.35213      24800.258      18540.104      43340.361     -13.952882      360.00405      74.723328     -476.58602      0.0035536782  -0.0025897801   0.00356       -0.002271734   -0.0025931394   0.0035536782  -0.0022743183  -14.481983      23.200412      20.259297      12.370911     -2.5603947     -21.612827      58.304002      57.556585      58.801095      2              197323.49      1.2163754      9427.7763      20776.916     -8024.8041      404.27482     -2880.5685      25039.197     -19942.534      2216.0948      17.8         
     18000   299.02646      25108.109      18770.752      43878.86      -803.91004      403.93383     -2039.7907     -775.87328      0.0035935355  -0.0016618983   0.0036        -0.0030094361  -0.0016632808   0.0035935355  -0.0030139736   6.6857816      56.499183      23.038979      15.141772     -1.8703146     -1.3420613      58.358241      57.558879      58.757619      2              197368.89      1.2160956      9259.8606      20778.305     -7536.923       409.04091     -2905.5255      25050.492     -19947.142      2197.8247      18           
     18200   297.63879      24859.058      18683.644      43542.702      709.39455      2167.5999     -1102.1125      1062.6962      0.0036333912  -0.0016568894   0.00364       -0.0050095427  -0.0016582635   0.0036333912  -0.0050221326   1.5501768      18.168033      10.074723      9.8597441     -2.478985      -12.179758      58.358534      57.561173      58.639743      2              196981.78      1.2184855      9482.1063      20764.993     -7992.9125      404.38337     -2856.8775      25003.515     -19946.149      2200.4882      18.2         
     18400   296.19231      25036.992      18592.844      43629.836     -684.38609      49.003962     -465.20402     -1636.9582      0.0036732454  -0.00085713154  0.00368       -0.0064093469  -0.00085749908  0.0036732454  -0.006429975   -12.235266      12.56938      -19.121869      0.33259219     4.9649492     -6.1550027      58.405284      57.563467      58.557245      2              196870.08      1.2191768      9357.051       20772.476     -7628.9578      408.269       -2926.8861      24995.298     -19940.259      2128.1538      18.4         
     18600   295.93937      24938.025      18576.966      43514.991      609.05017      260.63476      1360.9661      205.54966      0.0037130979   0.00045874569  0.00372       -0.0071928632   0.0004586405   0.0037130979  -0.0072188566  -7.7312627      8.4104376     -12.587101      14.522087      3.5167016     -21.804074      58.482204      57.565761      58.511069      2              196981.76      1.2184856      9334.5548      20870.799     -7917.3477      408.55353     -2816.1688      25002.451     -19944.818      2241.4645      18.6         
     18800   295.03239      24718.745      18520.033      43238.778      229.52179      533.94909      662.17465     -507.55837      0.0037529489   0.0019411338   0.00376       -0.0060393727   0.0019392523   0.0037529489  -0.0060576834   16.071403     -3.9595544     -17.107068     -1.6210576      3.0737797     -24.827065      58.568858      57.568055      58.57905       2              197510.7       1.2152224      9519.3029      20668.541     -8061.1551      415.07803     -2855.5606      24977.24      -19944.701      2176.9784      18.8         
     19000   298.42816      24966.559      18733.195      43699.753     -633.58148     -1066.4611      45.234519     -879.51786      0.0037927982   0.0013956282   0.0038        -0.0040090426   0.0013946552   0.0037927982  -0.0040171004   28.071218      11.538418     -10.658749      12.280134     -10.312441     -21.138107      58.53697       57.570349      58.698707      2              197814.28      1.2133575      9247.9846      20706.954     -7488.8324      417.13627     -2945.1795      24971.341     -19942.845      2083.3159      19           
     19200   299.62231      24927.471      18808.155      43735.625      369.24715      153.46375      195.16952      759.10816      0.003832646   -0.0017542938   0.00384       -0.0022424151  -0.0017558344   0.003832646   -0.0022449331   23.424407      15.575994      8.0824473      16.705728     -7.4212135     -13.394356      58.35284       57.572644      58.802823      2              197549.69      1.2149826      9440.2588      20803.647     -7910.2722      403.24588     -2846.9784      24985.679     -19948.11       2190.5907      19.2         
     19400   298.16401      24916.862      18716.613      43633.476     -522.35723     -399.6248      -343.94856     -823.49833      0.0038724922  -0.0042361708   0.00388       -0.0010091156  -0.0042451688   0.0038724922  -0.0010096251   1.0045118      22.57383       20.853289      8.1438456     -3.5955051      2.6810252      58.207761      57.574938      58.875508      2              197309.97      1.2164587      9350.592       20829.271     -7785.5819      403.31485     -2924.706       24992.638     -19948.665      2119.2667      19.4         
     19600   297.8813       24878.901      18698.867      43577.768      391.37275      573.69814      836.81214     -236.39204      0.0039123368  -0.0056398334   0.00392       -0.00099137131 -0.0056557974   0.0039123368  -0.00099186305 -18.169054     -10.29384      -21.511597      1.5918361      8.3371795     -15.420284      58.125709      57.577232      58.876553      2              197043.19      1.2181057      9359.1818      20723.972     -7766.6726      427.357       -2917.6315      24997.33      -19944.636      2135.0628      19.6         
     19800   298.33647      24684.39       18727.439      43411.829      1195.2622      677.83641      2076.0925      831.85764      0.0039521798  -0.005490115    0.00396        0.00010186451 -0.0055052411   0.0039521798   0.00010185932 -23.382115      31.637606      8.0507805      9.6102448     -3.4841337     -16.001699      58.134461      57.579526      58.940983      2              197296.38      1.2165426      9533.6481      20803.284     -8320.13        408.23065     -2812.7963      25018.868     -19946.715      2259.3572      19.8         
     20000   297.49325      24754.295      18674.508      43428.802     -406.79882     -623.46116     -481.26856     -115.66673      0.0039920213  -0.004185386    0.004          0.0005523348  -0.0041941692   0.0039920213   0.00055218232  1.1002415      22.634626      7.7395426      10.577077     -4.9282846     -15.051288      58.21073       57.58182       58.967532      2              197652.08      1.2143532      9180.4371      20704.49      -7666.2497      411.30489     -2897.4726      24970.019     -19948.234      2124.3125      20           
     20200   297.07883      25027.681      18648.493      43676.174     -483.30735     -37.887142     -1567.6588      155.6239       0.0040318611  -0.0044166692   0.00404        0.00048119455 -0.0044264515   0.0040318611   0.00048107881  17.827395      34.759476     -3.9209148      4.6419624      6.3519896     -13.175745      58.19721       57.584114      58.963339      2              197599.99      1.2146733      9483.4341      20871.939     -7883.7168      401.83934     -2862.1175      24960.618     -19944.315      2154.1849      20.2         
     20400   300.15849      24936.992      18841.812      43778.805      111.63103      474.96448     -540.32746      400.25607      0.0040716994  -0.0039646164   0.00408        0.00030978892 -0.0039724963   0.0040716994   0.00030974095 -14.487871      7.9182531      16.928432      11.049595      1.3274041     -17.796332      58.223635      57.586408      58.953237      2              197663.72      1.2142817      9446.2358      20606.12      -7764.9458      400.24913     -2790.606       24986.471     -19946.533      2249.3329      20.4         
     20600   301.90039      24680.455      18951.157      43631.612      247.08346      63.851098     -349.36008      1026.7594      0.004111536   -0.0036371114   0.00412       -0.0013027153  -0.0036437418   0.004111536   -0.0013035646  -7.4663227      12.015518     -0.52277794     11.418449      18.553909     -16.94847       58.242779      57.588702      58.858204      2              197417.84      1.2157941      9296.2377      20677.301     -7888.1959      397.40245     -2813.8613      24957.019     -19945.448      2197.7093      20.6         
     20800   297.55157      24939.641      18678.169      43617.81       414.54587     -47.874506      740.40474      551.10737      0.0041513711  -0.002801058    0.00416       -0.0023661271  -0.0028049883   0.0041513711  -0.0023689308   9.6041407      8.1802059     -7.7492679      2.4382517      11.619423     -7.6446738      58.291651      57.590996      58.795532      2              197380.97      1.2160212      9239.7805      20858.74      -7840.241       399.64853     -2775.2063      25001.919     -19945          2281.7131      20.8         
     21000   300.07388      24880.454      18836.501      43716.955     -206.95092     -241.78494     -1374.4857      995.41784      0.0041912046  -0.0023976976   0.0042        -0.0014014605  -0.0024005767   0.0041912046  -0.0014024434   3.4196933      7.3424827     -26.568416      4.2750338     -3.9133833     -22.141932      58.31523       57.59329       58.852385      2              197659.62      1.2143069      9245.5698      20757.678     -7635.2713      407.08077     -2905.28        24961.426     -19950.749      2105.397       21           
     21200   300.04578      25025.656      18834.737      43860.393      570.24254      931.30166      751.27023      28.155737      0.0042310365  -0.0031058313   0.00424       -0.0004876569  -0.0031106644   0.0042310365  -0.00048777585  7.0152598      3.7346593      11.11218       4.5779574      2.4651126     -19.661731      58.273836      57.595585      58.90624       2              197707.93      1.2140102      9508.5664      20710.365     -7850.3975      417.54952     -2770.8668      24956.338     -19945.899      2239.572       21.2         
     21400   296.62036      25032.367      18619.714      43652.081      664.87925      839.03297      1294.6951     -139.0903       0.0042708669  -0.0033686332   0.00428        3.6183958e-05 -0.0033743198   0.0042708669   3.6183304e-05 -10.095323      5.945232       2.2212469      12.701582      3.1474944     -13.395787      58.258473      57.597879      58.937112      2              197767.28      1.2136459      9394.8246      20893.903     -7922.799       409.54265     -2766.8302      24970.819     -19947.093      2256.896       21.4         
     21600   298.60831      24742.344      18744.504      43486.848      422.70815      1538.529      -118.39009     -152.01451      0.0043106956  -0.0036231292   0.00432        0.0004519368  -0.0036297086   0.0043106956   0.00045183471  11.74797      -0.16977035    -2.7023418      11.214796     -5.9802353     -27.584152      58.243597      57.600173      58.961615      2              197806.86      1.213403       9472.0751      20683.986     -8033.7368      406.66254     -2831.7437      24988.773     -19943.671      2213.3577      21.6         
     21800   297.3356       24873.738      18664.611      43538.349     -112.58406      535.72675      284.27479     -1157.7537      0.0043505227  -0.0042760926   0.00436       -4.822277e-05  -0.0042852612   0.0043505227  -4.8223933e-05 -6.0760669      3.9371873      28.760513      11.246182      4.9049378     -20.979917      58.205427      57.602467      58.932138      2              197586.27      1.2147577      9370.6665      20771.839     -7887.5132      396.54841     -2824.9542      24995.4       -19948.249      2222.1973      21.8         
     22000   295.13981      24975.251      18526.775      43502.026     -165.35337      638.80007     -131.51819     -1003.342       0.0043903483  -0.0043979383   0.0044        -0.0017487285  -0.0044076376   0.0043903483  -0.0017502593   2.2222158      23.950117      0.58283843     13.397761     -4.8626716     -6.171405       58.198305      57.604761      58.831919      2              197233.97      1.2169275      9259.2132      20707.716     -7565.4199      413.86356     -2894.4114      25001.083     -19946.793      2159.8786      22           
     22200   301.52935      24799.14       18927.865      43727.005      917.02127      1058.269       1258.6405      434.15422      0.0044301723  -0.0052227881   0.00444       -0.0032061007  -0.0052364745   0.0044301723  -0.0032112513  -1.5948505      19.300864     -17.661132      3.5678958     -23.301435     -3.8971767      58.150088      57.607055      58.746028      2              196790.7       1.2196686      9451.742       20741.692     -7974.5491      419.802       -2859.9661      24969.618     -19949.199      2160.4527      22.2         
     22400   298.66943      24761.917      18748.34       43510.256      148.47432      829.36645      24.116848     -408.06033      0.0044699947  -0.0051965051   0.00448       -0.0032241018  -0.0052100539   0.0044699947  -0.0032293104  -7.4436369     -0.66068692    -17.15393       7.2492535     -4.0609265     -2.3362976      58.151624      57.609349      58.744968      2              196800.18      1.2196099      9455.3028      20675.008     -7890.6916      402.13347     -2885.3457      24950.805     -19945.295      2120.1643      22.4         
     22600   297.9542       24834.471      18703.443      43537.914     -97.879738     -10.789753     -773.84908      490.99962      0.0045098155  -0.0052289335   0.00452       -0.0012371398  -0.0052426522   0.0045098155  -0.0012379056  -5.0229537      7.5018033     -23.879127      6.4150498      5.4921088     -7.8506914      58.149729      57.611643      58.862069      2              197193.9       1.2171748      9200.4612      20736.613     -7671.3728      409.49848     -2812.7833      24922.548     -19950.492      2159.2718      22.6         
     22800   298.11718      24781.946      18713.674      43495.619      67.415786      135.38936     -193.06556      259.92356      0.0045496347  -0.0046602662   0.00456        0.0010521231  -0.0046711591   0.0045496347   0.00105157     7.3640272      9.0980825      16.255547     -1.4822564     -0.25077284    -0.20887571     58.18297       57.613937      58.996987      2              197766.75      1.2136491      9186.0517      20713.376     -7777.1734      409.41319     -2828.3487      25025.065     -19946.438      2250.2785      22.8         
     23000   297.40644      24724.425      18669.058      43393.483     -267.89508     -749.48128     -564.83234      510.62837      0.0045894523  -0.0042998124   0.0046         0.0020441112  -0.0043090832   0.0045894523   0.0020420249  -2.4165975      9.2831829      10.743971      14.768523     -11.162637     -11.345322      58.204041      57.616231      59.05545       2              198042.3       1.2119605      9252.502       20811.02      -7934.1518      389.30491     -2821.129       24978.564     -19951.686      2205.7494      23           
     23200   298.45851      24919.709      18735.1        43654.809     -1211.0853     -1786.0214     -507.11351     -1340.121       0.0046292684  -0.0045678953   0.00464        0.0018027956  -0.00457836     0.0046292684   0.0018011725  -0.82704573     29.907447      10.703411      1.589689      -10.053839      2.7505197      58.18837       57.618525      59.041228      2              197949.18      1.2125306      9239.5154      20651.327     -7562.0219      386.73451     -2877.6547      25033.059     -19951.25       2204.154       23.2         
     23400   299.71931      24731.34       18814.244      43545.584     -365.10298     -1210.4421     -181.96936      297.10251      0.0046690828  -0.0044635105   0.00468        0.00064190076 -0.0044735017   0.0046690828   0.00064169483 -2.3993292      39.021609      10.056733      16.150386      3.8166623     -20.257636      58.194472      57.62082       58.97281       2              197748.4       1.2137617      9382.5446      20613.304     -7911.2797      391.68362     -2784.6205      24986.315     -19946.606      2255.0879      23.4         
     23600   297.13363      24732.027      18651.934      43383.961      0.1111064     -963.64041      40.211166      923.76256      0.0047088957  -0.0037803845   0.00472       -0.00026275412 -0.0037875482   0.0047088957  -0.00026278865 -15.148478      13.604026     -1.8166305      20.76094       14.326161     -4.9504064      58.234404      57.623114      58.919495      2              197713.07      1.2139786      9365.4627      20625.542     -7911.4182      395.4037      -2800.3035      25000.415     -19943.074      2257.0377      23.6         
     23800   296.31688      24874.018      18600.664      43474.681     -843.67869     -786.59972     -175.62186     -1568.8145      0.004748707   -0.0024622922   0.00476       -0.0021532295  -0.0024653286   0.004748707   -0.0021555511   6.1097261      32.37361       6.5115392      10.630948     -9.0971886     -2.0298901      58.311454      57.625408      58.808079      2              197608.16      1.2146231      9223.1552      20742.243     -7653.3836      398.39469     -2858.8279      24973.042     -19950.606      2163.6079      23.8         
     24000   295.52492      24858.622      18550.95       43409.572     -366.36535      504.52211     -1033.0852     -570.53295      0.0047885167  -0.001799505    0.0048        -0.004390352   -0.001801126    0.0047885167  -0.0044000179   5.4382513      0.54542131    -3.7056958      0.12794717    -10.260088     -6.3544011      58.350197      57.627702      58.676235      2              197303.99      1.2164956      9277.2581      20750.4       -7738.3121      411.98612     -2849.3437      24951.481     -19944.847      2157.2904      24           
     24200   299.47705      24892.979      18799.037      43692.016      693.48909     -669.18406      1269.6721      1479.9792      0.0048283249  -0.00094756266  0.00484       -0.0066247354  -0.00094801188  0.0048283249  -0.0066467763  -16.69049       3.689819      -18.433779      10.697011     -10.12273      -10.826156      58.399998      57.629996      58.544551      2              197037.05      1.2181437      9418.6115      20707.957     -7833.7931      411.58083     -2805.2058      24941.758     -19947.929      2188.6232      24.2         
     24400   298.26482      25070.816      18722.941      43793.758      642.97424     -196.47473      1740.2342      385.16327      0.0048681314   0.0012982457   0.00488       -0.0053441613   0.0012974037   0.0048681314  -0.0053584924   4.970575      -3.3211987     -33.702126      22.297524     -6.9339451     -0.54735135     58.531278      57.63229       58.620022      2              197742.43      1.2137984      9355.2159      20869.297     -7744.6435      408.85375     -2878.7251      25003.33      -19942.511      2182.0932      24.4         
     24600   296.53686      25081.274      18614.473      43695.747     -55.426041     -313.30534      994.21177     -847.18456      0.0049079364   0.0023157088   0.00492       -0.004211493    0.0023130316   0.0049079364  -0.0042203863   20.875098      32.313873      25.558893      6.1487133     -13.95728      -6.6925781      58.590754      57.634584      58.686776      2              198176.66      1.2111388      9279.9763      20941.263     -7860.1334      430.20067     -2776.0926      25013.189     -19947.129      2289.9675      24.6         
     24800   298.59147      24903.779      18743.446      43647.225     -748.30746     -1427.7919     -329.55498     -487.57551      0.0049477397   0.0017035767   0.00496       -0.0039759688   0.0017021273   0.0049477397  -0.003983894    8.7623461      16.772767     -7.1968843      12.992136     -6.0399282     -12.062924      58.554971      57.636878      58.700656      2              198110.36      1.2115441      9316.2059      20689.831     -7696.4267      401.82732     -2886.5666      25027.183     -19948.275      2192.3413      24.8         
     25000   297.48904      25011.454      18674.243      43685.697      380.83154     -332.03164      1144.3103      330.21602      0.0049875415   0.000759593    0.005         -0.0032022486   0.00075930466  0.0049875415  -0.0032073868  -12.41028      -4.6398951     -4.4038882      11.388183     -5.5535743     -9.5346956      58.49979       57.639172      58.746255      2              198085.29      1.2116974      9368.5628      20755.411     -7772.6487      424.88769     -2791.252       24976.113     -19949.62       2235.2413      25           
     25200   295.89686      25080.546      18574.298      43654.844     -893.00441     -1355.9063     -24.691886     -1298.4151      0.0050273417   0.00022994047  0.00504       -0.0012004322   0.00022991404  0.0050273417  -0.0012011533   11.658619      24.201947     -1.1851069      20.303801     -9.9557125     -12.026679      58.468829      57.641466      58.864232      2              198385.95      1.2098611      9194.7873      20835.045     -7578.2658      416.04603     -2809.2588      24967.88      -19945.689      2212.933       25.2         
     25400   297.36173      25001.471      18666.252      43667.723     -223.54437     -1057.6668     -255.13347      642.16714      0.0050671403  -0.0027362298   0.00508       -0.00089334382 -0.0027399801   0.0050671403  -0.00089374309  33.345493      35.983739      5.95338        17.435523     -10.854402     -13.516756      58.295441      57.643761      58.882331      2              197866.33      1.2130383      9393.4442      20834.485     -7856.6953      417.20993     -2804.0452      24963.424     -19946.352      2213.0272      25.4         
     25600   298.46421      24776.47       18735.458      43511.928      245.36031     -179.72811      184.33881      731.47024      0.0051069374  -0.0050524431   0.00512        0.00018577828 -0.0050652498   0.0051069374   0.00018576103 -30.373852      31.467314     -9.724194       9.2593601     -6.3431799     -17.36272       58.160046      57.646055      58.945929      2              197627.85      1.2145021      9238.8051      20713.678     -7813.1167      415.244       -2786.6238      24954.546     -19946.062      2221.8596      25.6         
     25800   299.18578      24937.158      18780.753      43717.911     -325.28258     -1148.4435     -863.99742      1036.5932      0.0051467328  -0.0045305389   0.00516        0.00074455556 -0.0045408329   0.0051467328   0.00074427852 -13.958213      10.274499      3.1039133     -7.8941498     -4.4789479     -3.9127084      58.190554      57.648349      58.97886       2              197849.86      1.2131393      9386.0263      20691.356     -7782.3362      414.29537     -2856.0709      25030.863     -19946.975      2227.817       25.8         
     26000   296.20229      24966.905      18593.471      43560.375      547.47961      714.2295       471.77556      456.43375      0.0051865267  -0.0036968415   0.0052         0.0010855259  -0.0037036917   0.0051865267   0.0010849371  -0.11340296     15.480219      13.443201     -1.6406488     -12.14918      -12.01443       58.239288      57.650643      58.998955      2              198090.9       1.2116631      9462.4757      20859.232     -7957.8644      387.85058     -2881.8115      25043.72      -19946.698      2215.2103      26           
     26200   298.51338      25030.319      18738.544      43768.863     -445.04896     -1130.614      -108.73375     -95.799147      0.005226319   -0.0035295097   0.00524       -6.240949e-05  -0.0035357531   0.005226319   -6.2411437e-05 -4.0105549      25.52448       5.9780065      10.642476      0.52208349    -5.7195122      58.249069      57.652937      58.931302      2              197904.86      1.2128021      9088.7432      20836.822     -7544.9474      411.16394     -2883.2489      25069.29      -19947.504      2238.5372      26.2         
     26400   298.53697      24659.867      18740.025      43399.892      895.02523      1088.8656      644.19888      952.01124      0.0052661097  -0.0040459078   0.00528       -0.0015934946  -0.0040541146   0.0052661097  -0.0015947655   12.708104      20.45061       17.886828      18.283463     -7.7716277     -10.312044      58.218883      57.655231      58.841067      2              197507.29      1.2152435      9159.7674      20806.79      -7930.4163      392.936       -2825.7401      25001.794     -19945.264      2230.7898      26.4         
     26600   300.63208      24830.712      18871.541      43702.253      16.891235     -286.39912     -1132.5803      1469.6531      0.0053058988  -0.0046163895   0.00532       -0.0030337186  -0.0046270779   0.0053058988  -0.0030383296   7.8811393     -3.7535812     -8.819083       13.133788     -11.727003     -12.208128      58.185535      57.657525      58.756188      2              197117.25      1.217648       9203.4597      20742.753     -7681.6081      406.92709     -2875.5352      24980.629     -19945.913      2159.1803      26.6         
     26800   299.0903       24703.313      18774.759      43478.072      1624.5612      1783.6771      700.00861      2389.9979      0.0053456863  -0.0051125947   0.00536       -0.0032537834  -0.0051257087   0.0053456863  -0.0032590885  -22.603289     -4.9221879     -30.14413       6.7818266      5.1734362     -10.181296      58.156529      57.659819      58.743218      2              196983.34      1.2184758      9305.9433      20639.848     -7866.1806      416.14302     -2801.4873      24955.977     -19946.931      2207.5587      26.8         
     27000   297.77811      24669.28       18692.389      43361.67       1173.1659      961.06008      280.84318      2277.5944      0.0053854723  -0.0038661789   0.0054        -0.0010411796  -0.0038736719   0.0053854723  -0.001041722   -7.4259319      15.253769     -9.4230346      1.1367655     -4.0988137     -12.512295      58.229389      57.662113      58.873618      2              197675.8       1.2142075      9295.8629      20705.058     -7978.2865      400.35774     -2763.1092      24956.049     -19946.651      2246.2887      27           
     27200   299.24471      25096.698      18784.452      43881.15      -1883.0568     -1755.5402     -2862.5728     -1031.0575      0.0054252566  -0.0025855397   0.00544        0.00028826909 -0.002588888    0.0054252566   0.00028822755 -0.13136309     35.951939      24.766042      1.9921935     -6.2691432     -8.2735552      58.304249      57.664407      58.951969      2              198201.24      1.2109886      9227.6814      20732.35      -7481.547       402.84051     -2836.8514      24998.389     -19946.165      2215.3731      27.2         
     27400   296.36374      24856.983      18603.605      43460.588     -214.43422      386.98458     -848.91358     -181.37364      0.0054650394  -0.0026787852   0.00548       -0.0013499732  -0.0026823796   0.0054650394  -0.0013508852   21.011237      49.483667      31.620787      3.306979       7.7250103     -23.00087       58.298799      57.666702      58.855419      2              197866         1.2130403      9401.8233      20836.089     -7954.7112      405.09866     -2916.6673      25034.346     -19948.996      2168.6836      27.4         
     27600   298.50558      24927.421      18738.055      43665.476     -796.85959     -577.05841     -1127.6048     -685.91552      0.0055048206  -0.0036403709   0.00552       -0.0040699304  -0.0036470131   0.0055048206  -0.0040782351  -4.6527715      26.829036     -3.075759       14.642808      0.77627184    -21.035236      58.242589      57.668996      58.695119      2              197144.67      1.2174787      9300.0906      20752.2       -7652.1828      403.43284     -2898.9369      24972.179     -19949.362      2123.8804      27.6         
[...]
    744000   296.86618      25308.276      18635.145      43943.42      -107.11719     -397.68008     -270.58782      346.91633      0.13871792    -0.040502126    0.1488        -0.070482576   -0.041345179    0.13871792    -0.073089726   -3.4561984      149.85753     -5.0464399      15.878972     -12.781612     -2.1887768      56.087821      65.886449      54.781091      2              202439.54      1.1856352      9301.1303      20968.056     -7932.8138      413.8461      -2530.1338      25035.198     -19947.007      2558.0574      744          
    744200   299.27905      25205.504      18786.608      43992.112     -855.31282     -212.88783     -1290.6488     -1062.4019      0.13875274    -0.038908784    0.14884       -0.071516345   -0.039685956    0.13875274    -0.074202503    14.525097      193.8742       25.531765      29.242733      0.80772157    -2.8801457      56.18096       65.888743      54.720166      2              202557.25      1.1849462      9254.5409      20960.986     -7982.0859      401.4117      -2531.3993      25046.992     -19944.941      2570.6516      744.2        
    744400   297.27685      25413.513      18660.924      44074.437     -1284.0376     -53.238657     -2430.4835     -1368.3906      0.13878755    -0.039237594    0.14888       -0.073671125   -0.040028137    0.13878755    -0.076525951    5.6706369      141.42523      0.3805422     -1.590096      -0.56873888    -8.950348       56.161739      65.891037      54.593174      2              202025.06      1.1880677      9295.6821      20793.099     -7683.1729      415.289       -2489.1789      25033.217     -19951.423      2592.6152      744.4        
    744600   301.78748      25099.536      18944.069      44043.605      215.75258      61.199253     -535.3642       1121.4227      0.13882237    -0.039213032    0.14892       -0.074921318   -0.040002572    0.13882237    -0.077876484    0.16591092     149.68596     -11.732193      15.64578      -1.8393079     -9.111841       56.163175      65.893331      54.519494      2              201764.58      1.1896015      9407.2489      20853.812     -8124.3819      411.88085     -2515.0715      25011.372     -19945.324      2550.9762      744.6        
    744800   300.00559      25056.476      18832.215      43888.691     -68.506185      331.42809     -1459.2704      922.3238       0.13885719    -0.039229005    0.14896       -0.074892009   -0.040019197    0.13885719    -0.077844801    3.5829089      133.1803      -20.841908      15.204876      7.973984      -11.19716       56.162241      65.895625      54.521221      2              201774.64      1.1895421      9277.8721      20916.873     -8104.2799      405.25772     -2474.0755      24983.736     -19948.908      2560.7529      744.8        
    745000   297.10446      25234.518      18650.102      43884.62      -548.5458      -898.18552     -790.42638      42.974507      0.138892      -0.039645027    0.149         -0.073582441   -0.040452299    0.138892      -0.076430219    1.1399217      158.33747     -2.347675       6.7124521      1.5983811     -18.446753      56.137923      65.897919      54.5984        2              201979.81      1.1883338      9249.003       20919.315     -7877.4246      407.89553     -2555.2028      25038.712     -19947.781      2535.7287      745          
    745200   298.32498      25160.343      18726.718      43887.06       18.651079      611.69908     -1685.709       1129.9631      0.13892681    -0.039735553    0.14904       -0.073114806   -0.040546567    0.13892681    -0.075925568   -15.614938      146.97005     -1.2319991     -1.3529723      3.1275733     -5.1608969      56.132631      65.900214      54.62596       2              202069.75      1.1878049      9296.4073      20869.167     -8014.5466      393.32854     -2484.103       25046.105     -19946.015      2615.9868      745.2        
    745400   296.73229      25412.552      18626.74       44039.292     -906.72995     -541.10101     -2555.2462      376.15734      0.13896162    -0.038785047    0.14908       -0.073149109   -0.039557219    0.13896162    -0.075962577   -4.4866833      140.4233       17.00094       16.521269     -18.642703     -8.1240763      56.188193      65.902508      54.623939      2              202269.32      1.1866329      9289.6887      20845.88      -7747.9623      422.89737     -2481.3075      25030.29      -19946.934      2602.0482      745.4        
    745600   297.77021      25291.907      18691.893      43983.8       -169.72043      842.67917     -2317.4529      965.61246      0.13899643    -0.03731125     0.14912       -0.072604975   -0.038025128    0.13899643    -0.075375672    8.1777957      158.36799     -8.719974       10.742296     -6.6469095      1.5596534      56.274345      65.904802      54.656007      2              202705.44      1.1840799      9307.0741      20995.167     -8064.5289      418.59869     -2500.202       25083.75      -19947.952      2635.5959      745.6        
    745800   297.43423      25286.731      18670.803      43957.534      237.77599      495.53746     -1354.9734      1572.7639      0.13903124    -0.036728956    0.14916       -0.071678353   -0.037420449    0.13903124    -0.074377004    16.12534       195.1073       0.65119357     17.893247      2.609502      -14.536738      56.308383      65.907096      54.710618      2              203037.78      1.1821418      9383.9456      20933.143     -8114.6805      403.28994     -2419.2403      25049.778     -19949.505      2681.0334      745.8        
    746000   297.89353      25356.992      18699.635      44056.627     -619.24855      3.9652322     -1809.9286     -51.782273      0.13906605    -0.03790292     0.1492        -0.071516977   -0.038639919    0.13906605    -0.074203183    15.016304      169.28259      2.7138608     -0.31428016    -0.21793501    -9.7372286      56.239758      65.90939       54.720128      2              202832.64      1.1833374      9257.8616      20836.823     -7765.2551      412.34539     -2520.7677      25081.776     -19945.792      2615.2169      746          
    746200   298.87182      25110.864      18761.044      43871.908     -92.605959     -141.90634     -965.25603      829.3445       0.13910085    -0.041244651    0.14924       -0.07129539    -0.042119347    0.13910085    -0.073964556    8.6796241      165.22138      5.2211721      7.2050391     -3.3092639     -20.200395      56.044416      65.911684      54.733188      2              202183.4       1.1871372      9344.0757      20704.304     -7992.3735      393.65396     -2422.175       25031.436     -19948.057      2661.2037      746.2        
    746400   297.18074      25096.198      18654.891      43751.088      441.51554      1152.6726     -245.22309      417.09714      0.13913566    -0.044165748    0.14928       -0.071292213   -0.045170758    0.13913566    -0.073961136   -34.097448      140.28431      0.70171578    -6.8508056      4.9817993     -22.99725       55.873662      65.913978      54.733375      2              201575.1       1.1907197      9330.4232      20953.702     -8155.3494      416.86867     -2480.936       24983.754     -19952.265      2550.5533      746.4        
    746600   298.62346      25107.661      18745.454      43853.115     -629.32509     -431.54391     -1824.8056      368.37429      0.13917046    -0.045500917    0.14932       -0.069923519   -0.046568597    0.13917046    -0.072488459   -5.4189808      131.87607     -17.040792     -1.0662692     -7.2584602     -1.2454346      55.795614      65.916272      54.814039      2              201597.2       1.1905891      9349.1003      20773.09      -7990.3033      404.53677     -2479.4061      25000.68      -19950.038      2571.2364      746.6        
    746800   297.61767      25231.105      18682.318      43913.423     -1265.4513      283.40519     -2699.2975     -1380.4615      0.13920527    -0.045529642    0.14936       -0.068206868   -0.046598691    0.13920527    -0.07064445    -11.469842      155.06307      5.5355309      8.231587      -2.9177831     -11.986848      55.793935      65.918566      54.91521       2              201970.24      1.1883901      9337.0574      20850.237     -7903.0932      384.74375     -2528.5817      25040.895     -19950.153      2562.1602      746.8        
    747000   298.49308      25168.631      18737.27       43905.901     -1123.8793     -1696.4893     -2506.9189      831.7703       0.13924007    -0.044841689    0.1494        -0.067785812   -0.045878181    0.13924007    -0.070192675   -13.897971      156.20171      9.713229       14.227425     -4.5062608     -14.007472      55.83415       65.92086       54.940024      2              202214.19      1.1869565      9264.7232      20920.206     -8016.4659      401.07984     -2479.0443      25029.294     -19951.162      2599.088       747          
    747200   299.3455       25257.607      18790.779      44048.385     -288.50491     -407.43208     -1816.9344      1358.8518      0.13927487    -0.043068632    0.14944       -0.06799439    -0.044023606    0.13927487    -0.070416445   -12.846081      151.9751       20.712482      17.767823     -3.9142361     -5.3809782      55.937795      65.923154      54.927732      2              202551.28      1.1849811      9426.1185      20898.913     -8176.5783      403.03339     -2392.153       25049.878     -19951.606      2706.1196      747.2        
    747400   297.22822      25342.808      18657.871      44000.679     -1261.528      -1128.9749     -2024.1839     -631.4252       0.13930967    -0.040692506    0.14948       -0.069594096   -0.041543615    0.13930967    -0.072134332    21.367241      146.08256      1.6735249      17.370688      7.8399601     -18.781004      56.076692      65.925449      54.833453      2              202712.76      1.1840372      9317.5385      20840.078     -7761.9357      408.09845     -2552.766       25040.133     -19948.338      2539.0289      747.4        
    747600   300.17868      25274.82       18843.08       44117.9       -1083.4129     -37.075369     -3474.7577      261.59434      0.13934446    -0.040658841    0.14952       -0.07167983    -0.041508523    0.13934446    -0.074378594    17.586855      151.99063      7.5620211      11.726146      7.0504703     -15.153936      56.07866       65.927743      54.710531      2              202272.46      1.1866145      9370.2337      20825.933     -7829.5124      395.7322      -2534.2237      24998.404     -19951.747      2512.4336      747.6        
    747800   297.32145      25235.923      18663.723      43899.646     -456.49417      421.08673     -1660.2585     -130.31076      0.13937926    -0.039861498    0.14956       -0.073747796   -0.040677732    0.13937926    -0.076608723   -18.749672      164.70407     -3.5730956      22.088694      3.6478129     -14.753414      56.125269      65.930037      54.588655      2              201996.64      1.1882348      9313.8556      20840.367     -7777.4815      389.53977     -2529.2906      24950.129     -19951.196      2469.6423      747.8        
    748000   300.86507      25159.629      18886.167      44045.796     -556.42532      204.67084     -1375.5753     -498.37153      0.13941406    -0.038096783    0.1496        -0.074752246   -0.038841439    0.13941406    -0.077693736    0.30233129     129.08084     -21.199313      5.5283821      19.166655     -26.501239      56.228426      65.932331      54.529458      2              202155.49      1.1873011      9364.9482      20820.227     -7992.28        400.69583     -2468.9099      24986.91      -19951.963      2566.038       748          
    748200   297.7399       25181.599      18689.991      43871.59      -889.86052     -169.79204     -2036.0152     -463.77428      0.13944885    -0.037891952    0.14964       -0.07532528    -0.038628519    0.13944885    -0.078313257    18.556048      174.56395      19.204504      13.372648      13.038185     -8.4815567      56.240399      65.934625      54.495686      2              202080.34      1.1877427      9403.509       20769.458     -7911.8332      384.52519     -2522.141       25004.875     -19946.793      2535.9408      748.2        
    748400   299.24946      25189.414      18784.75       43974.164     -474.36324     -479.13495     -879.68007     -64.274702      0.13948364    -0.039140713    0.14968       -0.077117196   -0.039927304    0.13948364    -0.080253025    7.6141411      173.76348     -4.7742504      2.8522213      2.7065197     -7.4781235      56.167403      65.936919      54.39008       2              201433.96      1.191554       9297.2587      20837.959     -7946.0466      389.41439     -2468.0825      25024.223     -19945.312      2610.8286      748.4        
    748600   298.23227      25110.769      18720.898      43831.667     -343.95983      116.58578     -1429.1612      280.69593      0.13951843    -0.039424441    0.14972       -0.077417502   -0.040222634    0.13951843    -0.080578479   -13.10749       133.0507      -32.999172     -11.010569     -0.20457049    -0.045665503    56.150817      65.939213      54.372381      2              201315.95      1.1922525      9214.106       20880.677     -7973.2664      391.28687     -2459.3795      25004.218     -19946.874      2597.9649      748.6        
    748800   301.42579      25110.612      18921.365      44031.977     -962.31416     -281.23991     -2253.0426     -352.65999      0.13955322    -0.039427875    0.14976       -0.075815388   -0.040226209    0.13955322    -0.078843431   -0.97402841     128.9575      -12.561415      1.1510571      12.048099     -11.808684      56.150616      65.941507      54.466802      2              201671.84      1.1901485      9177.9925      20795.813     -7878.1892      406.47418     -2475.8073      25031.57      -19947.241      2608.5218      748.8        
    749000   297.88477      25380.318      18699.085      44079.402      207.22954      547.85776     -1200.6759      1274.5068      0.13958801    -0.039607815    0.1498        -0.073814965   -0.040413552    0.13958801    -0.076681243    12.258546      153.98933      2.8843702     -5.720023      -3.2145591     -13.509534      56.140098      65.943801      54.584696      2              202077.54      1.1877591      9243.2295      20810.243     -7784.2018      434.91602     -2444.9397      25068.207     -19947.137      2676.1306      749          
    749200   298.0934       25198.52       18712.181      43910.701     -318.34857     -1014.4589     -379.04602      438.45927      0.1396228     -0.039726445    0.14984       -0.071478456   -0.040537082    0.1396228     -0.074161695   -11.30973       151.22291     -3.9775226     -1.8695926      10.889308     -12.176713      56.133163      65.946095      54.722399      2              202569.35      1.1848754      9343.2981      20907.229     -8019.0456      405.37845     -2509.7904      25020.335     -19948.884      2561.6601      749.2        
    749400   296.43472      25373.686      18608.061      43981.746     -16.200242     -117.47269     -583.72223      652.5942       0.13965759    -0.040312362    0.14988       -0.070918028   -0.041147424    0.13965759    -0.073558308    15.645808      163.29316      40.568606      8.0805745      20.190936      11.921114      56.098913      65.94839       54.755427      2              202574.99      1.1848424      9271.4072      20934.446     -7809.3629      385.78799     -2491.8278      25029.799     -19946.564      2591.4073      749.4        
    749600   297.10521      25242.552      18650.149      43892.702     -716.77326      149.56718     -2054.325      -245.56196      0.13969237    -0.041627752    0.14992       -0.072063778   -0.042519009    0.13969237    -0.074792274    0.058693278    161.29631      8.3658148     -3.6488635      1.3312709     -10.409875      56.022022      65.950684      54.687903      2              202054.88      1.1878923      9301.886       20795.984     -7878.4799      401.17599     -2414.8153      24982.547     -19945.745      2621.9866      749.6        
    749800   296.8452       25092.869      18633.828      43726.697     -680.03422     -52.578157     -1604.3988     -383.12569      0.13972716    -0.041975067    0.14996       -0.072813427   -0.042881475    0.13972716    -0.075600468   -14.867116      146.93615     -18.735634      8.4681605      9.5751002     -22.846802      56.001719      65.952978      54.643722      2              201825.5       1.1892424      9402.0722      20836.996     -8139.1222      408.91779     -2445.592       24978.991     -19949.395      2584.0047      749.8        
    750000   295.23526      25303.764      18532.767      43836.531      333.60307      512.96523     -626.44133      1114.2853      0.13976194    -0.042189403    0.15          -0.0734062     -0.043105227    0.13976194    -0.076239997   -3.3994607      164.6037      -1.7818969      2.3273159      10.842891     -1.6200591      55.98919       65.955272      54.608787      2              201658.36      1.1902281      9348.5785      21016.057     -8094.7491      411.04612     -2443.5041      25016.197     -19949.861      2622.8314      750          
WARNING: Bond/angle/dihedral extent > half of periodic box length (../domain.cpp:1172)
Loop time of 18427.1 on 16 procs for 750000 steps with 21060 atoms

Performance: 3.517 ns/day, 6.825 hours/ns, 40.701 timesteps/s, 857.161 katom-step/s
99.0% CPU use with 16 MPI tasks x no OpenMP threads

MPI task timing breakdown:
Section |  min time  |  avg time  |  max time  |%varavg| %total
---------------------------------------------------------------
Pair    | 10950      | 11763      | 12291      | 358.1 | 63.84
Bond    | 2871.2     | 3019.4     | 3149.2     | 119.5 | 16.39
Kspace  | 1501.1     | 2072.3     | 2968.5     | 944.0 | 11.25
Neigh   | 880.93     | 881.04     | 881.12     |   0.2 |  4.78
Comm    | 199.43     | 201.13     | 202.8      |   5.7 |  1.09
Output  | 91.537     | 91.539     | 91.547     |   0.0 |  0.50
Modify  | 334.74     | 359.95     | 372.36     |  66.6 |  1.95
Other   |            | 38.67      |            |       |  0.21

Nlocal:        1316.25 ave        1358 max        1278 min
Histogram: 2 1 1 2 1 4 0 4 0 1
Nghost:        13529.5 ave       13622 max       13417 min
Histogram: 2 0 0 4 2 1 2 1 2 2
Neighs:         789602 ave      844270 max      723023 min
Histogram: 1 1 3 0 1 4 1 1 1 3

Total # of neighbors = 12633638
Ave neighs/atom = 599.88784
Ave special neighs/atom = 5.8048433
Neighbor list builds = 37572
Dangerous builds = 0

#-------------------Wrap up-------------------
write_restart  ${myid}.restart
write_restart  tensile_2_EPON_862_pxld_88.2_replicate_1_FF_PCFF-class2xe.restart
System init for write_restart ...
PPPM initialization ...
  using 12-bit tables for long-range coulomb (../kspace.cpp:342)
  G vector (1/distance) = 0.17759062
  grid = 15 15 15
  stencil order = 5
  estimated absolute RMS force accuracy = 0.026150501
  estimated relative force accuracy = 7.8751458e-05
  using double precision KISS FFT
  3d grid and FFT values/proc = 1690 256
Generated 66 of 66 mixed pair_coeff terms from sixthpower/sixthpower mixing rule
write_data     ${myid}.data
write_data     tensile_2_EPON_862_pxld_88.2_replicate_1_FF_PCFF-class2xe.data
System init for write_data ...
PPPM initialization ...
  using 12-bit tables for long-range coulomb (../kspace.cpp:342)
  G vector (1/distance) = 0.17759062
  grid = 15 15 15
  stencil order = 5
  estimated absolute RMS force accuracy = 0.026150501
  estimated relative force accuracy = 7.8751458e-05
  using double precision KISS FFT
  3d grid and FFT values/proc = 1690 256
Generated 66 of 66 mixed pair_coeff terms from sixthpower/sixthpower mixing rule
Total wall time: 5:07:07
