thermo_style   custom step temp pe ke etotal press pxx pyy pzz v_etrue v_eengx v_eengy v_eengz v_etruex v_etruey v_etruez                f_sxx_ave f_syy_ave f_szz_ave f_sxy_ave f_sxz_ave f_syz_ave lx ly lz v_dir vol density ebond eangle edihed                eimp evdwl ecoul elong epair v_Time

restart        ${nsteps} rst1.a.${myid} rst2.a.${myid}
restart        200 rst1.a.${myid} rst2.a.${myid}
restart        200 rst1.a.tensile_3_EPON_862_pxld_86.8_replicate_4_FF_PCFF rst2.a.${myid}
restart        200 rst1.a.tensile_3_EPON_862_pxld_86.8_replicate_4_FF_PCFF rst2.a.tensile_3_EPON_862_pxld_86.8_replicate_4_FF_PCFF
dump           6 all atom 10000 dump.${myid} #every picosecond
dump           6 all atom 10000 dump.tensile_3_EPON_862_pxld_86.8_replicate_4_FF_PCFF 
dump_modify    6 scale no sort id

#-------------------Run-------------------
run            ${steps}
run            750000

CITE-CITE-CITE-CITE-CITE-CITE-CITE-CITE-CITE-CITE-CITE-CITE-CITE

Your simulation uses code contributions which should be cited:

- Type Label Framework: https://doi.org/10.1021/acs.jpcb.3c08419

@Article{Gissinger24,
 author = {Jacob R. Gissinger, Ilia Nikiforov, Yaser Afshar, Brendon Waters, Moon-ki Choi, Daniel S. Karls, Alexander Stukowski, Wonpil Im, Hendrik Heinz, Axel Kohlmeyer, and Ellad B. Tadmor},
 title = {Type Label Framework for Bonded Force Fields in LAMMPS},
 journal = {J. Phys. Chem. B},
 year =    2024,
 volume =  128,
 number =  13,
 pages =   {3282–-3297}
}

CITE-CITE-CITE-CITE-CITE-CITE-CITE-CITE-CITE-CITE-CITE-CITE-CITE

PPPM initialization ...
  using 12-bit tables for long-range coulomb (../kspace.cpp:342)
  G vector (1/distance) = 0.17970628
  grid = 15 15 15
  stencil order = 5
  estimated absolute RMS force accuracy = 0.023498084
  estimated relative force accuracy = 7.0763783e-05
  using double precision KISS FFT
  3d grid and FFT values/proc = 1521 256
Generated 66 of 66 mixed pair_coeff terms from sixthpower/sixthpower mixing rule
Neighbor list info ...
  update: every = 1 steps, delay = 0 steps, check = yes
  max neighbors/atom: 5000, page size: 100000
  master list distance cutoff = 14
  ghost atom cutoff = 14
  binsize = 7, bins = 9 8 9
  1 neighbor lists, perpetual/occasional/extra = 1 0 0
  (1) pair lj/class2/coul/long, perpetual
      attributes: half, newton on
      pair build: half/bin/newton
      stencil: half/bin/3d
      bin: standard
WARNING: Inconsistent image flags (../domain.cpp:1051)
Per MPI rank memory allocation (min/avg/max) = 19.44 | 19.45 | 19.45 Mbytes
   Step          Temp          PotEng         KinEng         TotEng         Press           Pxx            Pyy            Pzz          v_etrue        v_eengx        v_eengy        v_eengz        v_etruex       v_etruey       v_etruez      f_sxx_ave      f_syy_ave      f_szz_ave      f_sxy_ave      f_sxz_ave      f_syz_ave          Lx             Ly             Lz           v_dir          Volume        Density         E_bond        E_angle        E_dihed        E_impro         E_vdwl         E_coul         E_long         E_pair         v_Time    
         0   298            37550.924      18706.318      56257.242     -694.12392     -174.42268     -842.92193     -1065.0271      0              2.3794876e-16 -7.9491179e-16 -1.1452883e-16  2.220446e-16  -7.7715612e-16 -1.110223e-16   0              0              0              0              0              0              59.722331      53.631818      62.040513      3              198716.83      1.2078466      12487.735      22057.782     -2673.4442      390.01866      285.18513      24694.364     -19690.715      5288.8336      0            
       200   299.03648      37864.017      18771.381      56635.398     -746.66758      14.590691     -1029.7546     -1224.8388      3.99992e-05    0.00062698849  0.00041807185  4e-05          0.00062679202  0.00041798448  3.99992e-05   -2.0714668     -11.013528      20.287201      16.393545     -13.051762      17.754757      59.759776      53.65424       62.042995      3              198932.51      1.206537       12673.785      22202.543     -2662.5191      393.49728      260.06231      24688.044     -19691.395      5256.7113      0.2          
       400   297.92486      37923.286      18701.601      56624.887     -70.364608      407.66106     -25.260027     -593.49486      7.99968e-05    6.1446011e-05  0.0016957072   8e-05          6.1444123e-05  0.0016942711   7.99968e-05    8.9281137      1.4125266      33.998773      2.0930082     -17.252737     -0.9449027      59.726001      53.722762      62.045476      3              199081.95      1.2056313      12700.464      22233.216     -2820.2877      396.33642      365.28943      24738.718     -19690.45       5413.5576      0.4          
       600   294.48558      37862.678      18485.707      56348.386     -223.25624     -98.962752     -556.90102     -13.904929      0.0001199928  -0.0017666456   0.0021287417   0.00012       -0.001768208    0.0021264792   0.0001199928   21.191975      14.379433      25.74217       5.6579687     -28.637871      1.4283225      59.616823      53.745986      62.047958      3              198811.89      1.207269       12608.969      22172.885     -2638.8036      404.3472       301.07558      24704.261     -19690.055      5315.2815      0.6          
       800   296.14239      37987.539      18589.71       56577.25       490.49776      397.13264      158.13669      916.22396      0.0001599872  -0.0044445302   0.001633576    0.00016       -0.0044544365   0.0016322432   0.0001599872  -7.4996298     -2.3472959     -0.12018761     12.636476     -13.795361     -0.68042166     59.456893      53.719429      62.05044       3              198188.51      1.2110664      12461.709      22284         -2608.4192      402.28164      402.60908      24735.862     -19690.502      5447.9688      0.8          
      1000   296.66259      38010.69       18622.365      56633.055     -116.91388     -60.371759      228.24581     -518.61569      0.00019998    -0.0052441175   0.0011990676   0.0002        -0.0052579161   0.0011983492   0.00019998    -24.215821      6.5056826     -9.1825879      3.5126776     -26.93556      -3.3833439      59.40914       53.696126      62.052921      3              197951.34      1.2125174      12509.811      22218.164     -2571.5105      416.16909      411.97724      24718.597     -19692.519      5438.0557      1            
      1200   297.43018      37641.705      18670.548      56312.254      296.06575      892.9264      -536.74108      532.01192      0.0002399712  -0.0045760292   0.0010178747   0.00024       -0.0045865313   0.001017357    0.0002399712  -19.128922     -1.3925795     -1.2524166      8.4821334     -21.042661     -0.52960912     59.44904       53.686408      62.055403      3              198056.36      1.2118744      12517.576      22102.34      -2688.7766      408.18967      320.01905      24673.894     -19691.537      5302.3761      1.2          
      1400   298.84269      37932.497      18759.216      56691.713     -564.58124     -729.79858     -239.00955     -724.93559      0.00027996081 -0.0024229344  -0.00010491624  0.00028       -0.0024258745  -0.00010492174  0.00027996081  1.7874106      11.285539      11.304119      3.8699135     -20.213845      12.267957      59.577628      53.626191      62.057884      3              198270.05      1.2105683      12578.744      22265.003     -2622.7505      433.65353      292.4339       24678.303     -19692.89       5277.8471      1.4          
      1600   297.80288      37856.751      18693.944      56550.695     -835.44678     -811.91976     -582.95415     -1111.4664      0.00031994881 -0.00049458599 -0.0015773562   0.00032       -0.00049470834 -0.0015786015   0.00031994881  5.8795074     -7.6208785      14.801424      4.7625017     -20.951378      6.0189215      59.692793      53.547221      62.060366      3              198368.71      1.2099662      12543.75       22120.269     -2542.1008      403.97591      317.53375      24706.884     -19693.561      5330.857       1.6          
      1800   295.78139      37830.986      18567.049      56398.035      91.036392      965.32618     -43.099774     -649.11722      0.00035993522  0.0019380517  -0.0030778192   0.00036        0.0019361761  -0.0030825654   0.00035993522 -8.7788663      6.5695445      7.3638351     -12.641889     -11.430023     -2.2086324      59.838076      53.466749      62.062848      3              198560.61      1.2087969      12656.828      22140.893     -2625.2045      400.72879      244.15889      24707.273     -19693.692      5257.7399      1.8          
      2000   298.62687      38014.105      18745.668      56759.773      294.76119     -322.47457      318.13035      888.62781      0.00039992002  0.0038020925  -0.0036971459   0.0004         0.0037948828  -0.0037039973   0.00039992002  13.992535     -26.462846     -10.304705     -0.5061113     -4.9285957      0.98942143     59.949401      53.433533      62.065329      3              198814.38      1.2072539      12640.066      22201.989     -2658.1358      412.47068      378.94096      24729.833     -19691.059      5417.7154      2            
      2200   297.74998      37788.332      18690.623      56478.955     -1244.6752     -540.85547     -1000.8819     -2192.2883      0.00043990323  0.0033504801  -0.0020376733   0.00044        0.0033448798  -0.0020397522   0.00043990323  28.824662     -13.458475      16.087481     -7.1806514     -21.139062      10.219342      59.922429      53.522534      62.067811      3              199063.9       1.2057407      12540.549      22005.681     -2461.7132      413.87606      292.05989      24686.82      -19688.941      5289.9388      2.2          
      2400   296.63706      37899.214      18620.762      56519.976     -651.74861     -128.15539     -973.36814     -853.7223       0.00047988484  0.0012021188  -0.0003602558   0.00048        0.0012013968  -0.00036032071  0.00047988484  25.956582      3.5446901      22.39468       12.863517     -31.504001      11.10461       59.794124      53.612496      62.070293      3              198979.5       1.2062521      12655.05       22266.071     -2751.3418      409.40335      310.88131      24699.364     -19690.215      5320.0308      2.4          
      2600   298.16821      38003.456      18716.877      56720.333      1554.3651      1132.7704      2121.3256      1408.9994      0.00051986485 -0.0024586805   0.00080699024  0.00052       -0.002461708    0.0008066648   0.00051986485  6.8500033     -3.3528376      22.390397     -5.1579337     -7.5332313      14.790777      59.575493      53.675098      62.072774      3              198491.38      1.2092185      12630.138      22101.843     -2666.7137      422.65043      491.74025      24716.531     -19692.733      5515.5379      2.6          
      2800   298.62251      37705.183      18745.395      56450.578      158.9675       40.62392       945.10061     -508.82202      0.00055984326 -0.004442515    0.0024903784   0.00056       -0.0044524123   0.0024872826   0.00055984326 -18.478457     -3.1198193     -7.8691336     -2.2300321     -5.2377418      8.5231818      59.457014      53.765381      62.075256      3              198437.77      1.2095451      12501.864      22159.314     -2690.1321      397.60576      335.79125      24695.865     -19695.125      5336.5313      2.8          
      3000   296.93153      37957.717      18639.247      56596.964     -100.34957      148.27836      887.32063     -1336.6477      0.00059982007 -0.0046280614   0.0026999249   0.0006        -0.004638804    0.0026962866   0.00059982007 -19.720607      1.4181654     -3.6366542      12.630197     -8.1936145      2.1375937      59.445932      53.77662       62.077737      3              198450.19      1.2094694      12505.332      22270.643     -2548.8394      415.675        322.99133      24687.245     -19695.329      5314.9064      3            
      3200   300.20411      37863.589      18844.676      56708.265     -454.3644      -877.7959      -88.97949      -396.31781      0.00063979529 -0.0035993625   0.0025454251   0.00064       -0.0036058558   0.002542191    0.00063979529 -12.394584      27.332349      12.268561     -1.4582927     -17.931128      13.348645      59.507369      53.768333      62.080219      3              198632.62      1.2083586      12618.781      22105.375     -2685.7966      404.59709      356.68602      24757.575     -19693.628      5420.633       3.2          
      3400   300.04359      37635.234      18834.6        56469.834      260.69688      995.31158      683.67486     -896.89581      0.0006797689  -0.0016026304   0.00061993885  0.00068       -0.0016039159   0.00061974677  0.0006797689  -20.829858      4.7885033     -9.0261283      1.0968707     -11.81815      -7.0329631      59.626618      53.665066      62.082701      3              198656.35      1.2082143      12610.722      22112.075     -2806.3565      394.12363      314.3854       24702.74      -19692.455      5324.6701      3.4          
      3600   299.8209       37651.5        18820.621      56472.121      705.33483      1596.6415      396.0587       123.30427      0.00071974092  8.1848578e-05 -0.001397114    0.00072        8.1845229e-05 -0.0013980909   0.00071974092  8.2052745      8.7031565      16.241596      1.7112696     -12.248743      16.593201      59.727219      53.556888      62.085182      3              198598.33      1.2085673      12481.092      22052.61      -2799.4615      378.59893      474.42386      24760.034     -19695.797      5538.661       3.6          
      3800   300.12224      37938.849      18839.537      56778.386     -427.52656     -137.5768      -741.69617     -403.30669      0.00075971135  0.0010116076  -0.0030490953   0.00076        0.0010110962  -0.0030537533   0.00075971135  4.6063324     -7.7704643      15.923911     -11.802918     -19.444293      5.2913538      59.782747      53.468289      62.087664      3              198462.05      1.2093972      12580.394      22182.812     -2613.5548      398.63102      367.70177      24716.161     -19693.296      5390.5664      3.8          
      4000   296.34187      37811.125      18602.232      56413.357     -397.10885     -643.80138     -516.27659     -31.248571      0.00079968017  0.0013000768  -0.0039396635   0.0008         0.0012992324  -0.0039474444   0.00079968017  14.116893      13.035956      23.692619      5.9377036     -16.003634      18.625007      59.799975      53.420526      62.090145      3              198349.83      1.2100814      12560.909      22193.395     -2634.5382      391.14237      309.5307       24683.878     -19693.192      5300.2167      4            
      4200   297.32537      37846.576      18663.969      56510.545     -52.841242     -25.928193     -171.45559      38.860059      0.0008396474   0.0017443115  -0.0044222471   0.00084        0.0017427919  -0.0044320542   0.0008396474  -11.778481     -26.726512      34.016697     -4.8010058     -16.387229     -0.76863887     59.826505      53.394645      62.092627      3              198349.62      1.2100827      12550.212      22202.708     -2709.0045      403.18711      331.96787      24760.064     -19692.559      5399.4734      4.2          
      4400   299.43482      37889.207      18796.386      56685.593      246.35308      625.17967     -367.27285      481.15242      0.00087961303  0.0021517971  -0.0030142764   0.00088        0.0021494853  -0.0030188285   0.00087961303 -0.60536208    -11.29665      -1.9629498      5.957183      -13.235484     -1.6846082      59.850841      53.470157      62.095109      3              198718.87      1.2078342      12621.746      22196.438     -2771.2791      424.41048      408.64785      24704.626     -19695.383      5417.8911      4.4          
      4600   296.42936      37943.462      18607.724      56551.187     -433.86162     -159.77468     -774.12232     -367.68785      0.00091957706  0.0019538544  -0.0021747854   0.00092        0.0019519481  -0.0021771537   0.00091957706  26.8643        20.986425      56.661212     -5.5959021     -12.796465      11.685336      59.83902       53.51518       62.09759       3              198854.86      1.2070082      12608.611      22200.019     -2632.9441      412.33083      331.098        24717.083     -19692.735      5355.4462      4.6          
      4800   298.93265      37824.689      18764.863      56589.551      161.23204      413.71954     -117.65975      187.63635      0.00095953949  0.00054457206 -0.0020345784   0.00096        0.00054442383 -0.0020366509   0.00095953949 -19.310566     -10.765094     -3.5195549      10.552593      2.2400671      15.886093      59.754854      53.5227        62.100072      3              198611         1.2084901      12600.901      22050.37      -2595.7749      410.01731      329.52757      24724.599     -19694.952      5359.1746      4.8          
      5000   301.28059      37970.942      18912.25       56883.192      638.45332      945.28301      1120.2872     -150.21025      0.00099950033  0.0011201628  -0.00089130712  0.001          0.0011195359  -0.00089170457  0.00099950033 -8.646133      -11.844762      23.836773      6.5769223     -14.421923      4.3921553      59.78923       53.584015      62.102554      3              198960.87      1.2063651      12620.176      22247.561     -2685.7072      403.20801      348.4354       24729.02      -19691.751      5385.7049      5            
      5200   299.13097      37752.454      18777.312      56529.766      575.19843      1442.7652      879.37999     -596.54992      0.0010394596   0.0014003801   0.0017363349   0.00104        0.0013994005   0.0017348293   0.0010394596   1.2476768     -0.74900089     5.3744535      12.939341     -16.726487      1.488409       59.805965      53.72494       62.105035      3              199547.94      1.2028159      12398.928      22250.857     -2706.3365      383.12039      329.63278      24790.046     -19693.794      5425.885       5.2          
      5400   298.49677      37796.526      18737.502      56534.028     -361.81151      656.53917     -1448.6483     -293.32534      0.0010794172   0.00021663106  0.0020108591   0.00108        0.0002166076   0.00200884     0.0010794172   16.141107      33.525844      18.409743     -0.11176664    -6.1865002      6.54635        59.735269      53.739664      62.107517      3              199374.65      1.2038614      12619.196      22050.181     -2726.044       404.04076      368.34937      24773.438     -19692.635      5449.1518      5.4          
      5600   301.82367      37962.453      18946.34       56908.794     -244.05442     -335.90404     -662.83524      266.57603      0.0011193733  -0.00094098765  0.0004797904   0.00112       -0.00094143066  0.00047967534  0.0011193733  -14.333691     -0.22600666    -1.1317418     -6.2761869     -3.2845824     -0.74857159     59.666133      53.65755       62.109998      3              198847.55      1.2070525      12636.447      22184.616     -2681.1063      391.12169      355.78867      24767.547     -19691.961      5431.3748      5.6          
      5800   298.13619      37949.555      18714.867      56664.422     -766.93145     -426.80044     -732.53427     -1141.4596      0.0011593277  -9.1178052e-05 -0.00038825169  0.00116       -9.1182209e-05 -0.00038832708  0.0011593277  -15.041572     -8.4085738     -0.16823375     2.4187805     -21.146566      0.58355392     59.716886      53.610995      62.11248       3              198851.97      1.2070257      12639.347      22217.539     -2704.1179      404.3971       337.09166      24746.62      -19691.322      5392.39        5.8          
      6000   296.30498      37827.982      18599.917      56427.899     -1358.8356     -1250.2528     -1814.3844     -1011.8696      0.0011992806   0.001540353   -0.0010970455   0.0012         0.0015391678  -0.0010976477   0.0011992806   9.1898519      8.7890532      24.759799     -2.721424      -9.5639057      4.9574924      59.814324      53.572981      62.114962      3              199043.15      1.2058664      12634.313      22193.356     -2708.672       393.84904      260.899        24745.37      -19691.132      5315.1365      6            
      6200   298.59237      37918.795      18743.502      56662.298     -575.20802     -235.55679     -303.29352     -1186.7738      0.0012392318   0.0016453791  -0.0013480456   0.00124        0.001644027   -0.0013489551   0.0012392318   16.006143     -8.6237119      28.346841     -1.3107863     -16.629229      8.2929847      59.820597      53.55952       62.117443      3              199021.95      1.2059948      12552.42       22140.1       -2594.2308      393.64647      354.15323      24764.625     -19691.919      5426.859       6.2          
      6400   298.99048      37906.063      18768.493      56674.556      501.95429      829.8615      -348.70751      1024.7089      0.0012791815   6.4537507e-05 -0.00082876124  0.00128        6.4535424e-05 -0.00082910485  0.0012791815   8.4079965     -3.5407697      50.471484      7.3575648     -22.323899      4.3840902      59.726185      53.58737       62.119925      3              198819.12      1.2072252      12619.161      22134.177     -2703.2536      383.84972      388.52657      24771.941     -19688.339      5472.1288      6.4          
      6600   298.66729      37683.194      18748.205      56431.399      219.34458      535.55421      309.42403     -186.94449      0.0013191296  -0.00023706955 -0.00021415653  0.00132       -0.00023709765 -0.00021417947  0.0013191296  -36.33914      -1.329355       1.6987006     -6.1679188     -18.083615     -8.4461848      59.708173      53.620332      62.122407      3              198889.36      1.2067988      12602.671      22085.459     -2735.7056      391.35851      251.48655      24777.203     -19689.278      5339.411       6.6          
      6800   298.7778       37890.623      18755.143      56645.766     -173.75716      404.08681     -606.60882     -318.74946      0.001359076    0.00085819652 -0.00062818797  0.00136        0.00085782848 -0.00062838536  0.001359076    12.879955      17.406337      21.052244     -0.35880645    -28.543632      12.645834      59.773584      53.598127      62.124888      3              199032.74      1.2059294      12797.819      22074.302     -2787.0014      399.26119      330.67782      24765.837     -19690.272      5406.242       6.8          
      7000   297.65563      37946.026      18684.701      56630.727      139.18055     -669.85647      1498.5304     -411.13225      0.0013990209   0.00087510114 -0.001228066    0.0014         0.00087471846 -0.0012288207   0.0013990209   7.1062199     -26.698173      26.645749      5.0350364     -32.321532     -6.0739294      59.774594      53.565954      62.12737       3              198924.58      1.2065851      12719.099      22177.596     -2769.8524      380.27366      408.68045      24722.87      -19692.641      5438.9097      7            
      7200   298.46417      37736.307      18735.455      56471.762      306.43957      1025.9915     -431.67903      325.00619      0.0014389642   0.00045019018 -0.00084746689  0.00144        0.00045008888 -0.0008478262   0.0014389642  -3.4507533      5.9987978      26.810197      1.6263216     -9.9681718      2.0341462      59.749217      53.586366      62.129851      3              198923.85      1.2065896      12653.394      22101.633     -2764.262       374.70756      292.24635      24773.492     -19694.904      5370.835       7.2          
      7400   296.79294      37889.563      18630.547      56520.111     -406.91631     -734.49324     -325.3103      -160.94538      0.0014789059  -0.00048005651 -0.00026452794  0.00148       -0.00048017177 -0.00026456293  0.0014789059   15.898069      6.7732361      21.082543      3.2727628     -6.5208489      14.495663      59.693661      53.617631      62.132333      3              198862.77      1.2069601      12655.405      22166.376     -2715.8194      428.28831      254.16135      24795.553     -19694.4        5355.3136      7.4          
      7600   300.28502      37884.215      18849.755      56733.97      -547.2197      -1507.2535     -633.79064      499.38507      0.001518846   -0.0026513861  -0.00080082169  0.00152       -0.0026549073  -0.00080114252  0.001518846   -8.2032219     -5.2870276     -7.6245987      6.4246544     -0.82796751     5.7417882      59.563984      53.588868      62.134815      3              198332.25      1.2101887      12547.397      22223.094     -2700.8444      406.85959      362.42489      24736.156     -19690.873      5407.7078      7.6          
      7800   298.40669      37736.892      18731.847      56468.739      592.03923      1322.1184      633.13603     -179.13671      0.0015587845  -0.0036998448   0.00024735348  0.00156       -0.0037067062   0.00024732289  0.0015587845  -14.152523     -12.622001     -3.9665506      5.6767821     -27.693352     -8.4158077      59.501368      53.645084      62.137296      3              198339.51      1.2101444      12672.959      22103.504     -2725.4667      389.74853      245.69993      24740.393     -19689.946      5296.1471      7.8          
      8000   296.58182      37940.841      18617.295      56558.136      523.65945      345.50209      602.33529      623.14096      0.0015987214  -0.0036023095   0.0031598477   0.0016        -0.0036088134   0.0031548659   0.0015987214  -15.713806     -9.7967776     -18.438597     -11.311206     -7.4396671     -4.390628       59.507193      53.801286      62.139778      3              198944.44      1.2064647      12569.187      22169.536     -2614.1133      394.23159      332.18594      24779.502     -19689.688      5421.9995      8            
      8200   299.24175      37955.598      18784.266      56739.864     -13.392217      1571.9273     -704.86663     -907.23734      0.0016386567  -0.0032319354   0.0059233132   0.00164       -0.0032371694   0.0059058394   0.0016386567  -0.8595159      11.302562      4.9273582     -4.987498      -9.0981143     -2.5475794      59.529312      53.949496      62.142259      3              199574.61      1.2026552      12702.084      22158.361     -2788.2363      386.46555      404.48819      24780         -19687.564      5496.9242      8.2          
      8400   295.45259      37822.264      18546.41       56368.674     -148.52505     -438.31753      28.921542     -36.179162      0.0016785904  -0.0025192359   0.0076689044   0.00168       -0.0025224145   0.0076396479   0.0016785904   6.2382534      24.396757      36.87006       14.773886     -24.839875      3.2346027      59.571876      54.043115      62.144741      3              200071.87      1.1996661      12780.489      22059.434     -2776.8695      404.36079      272.85822      24775.947     -19693.956      5354.8492      8.4          
      8600   297.15671      37999.034      18653.382      56652.416      171.84286     -44.256146     -341.28929      901.07403      0.0017185225  -0.0039669998   0.0066002828   0.00172       -0.0039748892   0.0065785963   0.0017185225   23.87894       20.611855      16.058593      0.36903891    -21.547174     -1.5656366      59.485413      53.985803      62.147223      3              199577.59      1.2026372      12558.548      22086.612     -2697.7812      410.00108      535.34485      24797.889     -19691.579      5641.6542      8.6          
      8800   300.87049      37805.491      18886.507      56691.998      1133.2124      1060.7132      1047.2585      1291.6656      0.001758453   -0.0060819137   0.0043495336   0.00176       -0.0061004839   0.0043401017   0.001758453   -0.349136       14.734734      8.0351408     -0.090048722   -1.5278716      13.931495      59.359105      53.865091      62.149704      3              198716.44      1.2078489      12648.88       22031.572     -2678.5723      410.85012      322.22728      24759.004     -19688.47       5392.7612      8.8          
      9000   297.0566       37726.039      18647.098      56373.137      487.16746      1170.65       -488.67764      779.52997      0.0017983819  -0.0066692885   0.0018276383   0.0018        -0.0066916276   0.0018259702   0.0017983819  -30.477258     -10.531791     -37.647731      6.1469255     -16.125247     -13.147937      59.324026      53.729837      62.152186      3              198108.24      1.2115571      12569.762      22180.482     -2698.7495      400.29116      235.40915      24729.549     -19690.704      5274.2535      9            
      9200   299.50532      37721.448      18800.811      56522.259     -130.94383     -831.6033       864.3139      -425.5421       0.0018383093  -0.0047463879   0.001261792    0.00184       -0.0047576878   0.0012609966   0.0018383093  -12.292519     -19.854046     -0.071666638   -5.4497714     -9.098803       5.1462713      59.438866      53.69949       62.154668      3              198387.55      1.2098513      12538.254      22159.041     -2614.9835      408.87903      200.70942      24723.264     -19693.716      5230.258       9.2          
      9400   298.05367      37885.317      18709.687      56595.004     -255.25752      314.09411     -815.59492     -264.27175      0.001878235   -0.0038407564   0.0016475208   0.00188       -0.003848151    0.0016461652   0.001878235    2.1265988      4.0430855     -17.405968     -1.3824783     -28.032049     -7.732869       59.492952      53.720177      62.157149      3              198652.5       1.2082377      12597.144      22079.205     -2641.9128      404.15292      423.93824      24716.907     -19694.118      5446.7274      9.4          
      9600   296.39869      38082.669      18605.799      56688.468      115.16586      130.74091      169.89784      44.858836      0.0019181592  -0.0028232535   0.0018108641   0.00192       -0.0028272464   0.0018092264   0.0019181592   1.8294993     -1.6018313     -6.2759965      10.317394     -24.518507      16.984428      59.55372       53.728938      62.159631      3              198895.78      1.2067598      12657.877      22194.037     -2564.1161      406.70927      325.93758      24755.54      -19693.317      5388.1612      9.6          
      9800   296.84267      37865.621      18633.669      56499.291     -311.31744     -260.49229     -486.29882     -187.16121      0.0019580817  -0.0016115372   0.0026671425   0.00196       -0.0016128372   0.002663592    0.0019580817   0.20748656    -0.32267315     2.6339659      6.7605043     -11.673412      13.206398      59.626086      53.774861      62.162112      3              199315.64      1.2042178      12425.642      22277.584     -2577.0876      407.25965      298.90182      24727.948     -19694.626      5332.2234      9.8          
     10000   297.69769      37943.749      18687.341      56631.09      -89.806767     -351.22608      349.88693     -268.08115      0.0019980027  -0.0022714043   0.0016293552   0.002         -0.0022739879   0.0016280292   0.0019980027   25.039643      17.097023     -8.4147275      6.1735563     -8.0785181      1.4517258      59.586677      53.719203      62.164594      3              198985.68      1.2062146      12708.79       22155.432     -2659.7401      393.63544      311.51167      24729.27      -19695.15       5345.6314      10           
     10200   297.63281      38064.541      18683.268      56747.809      205.30373      79.556428     -355.12082      891.47558      0.002037922   -0.0036699313   0.00089157448  0.00204       -0.0036766821   0.00089117727  0.002037922   -13.662731     -14.772672     -8.7575978     -1.8233784     -12.972835     -4.2368165      59.503154      53.679634      62.167076      3              198568.33      1.2087499      12687.505      22233.717     -2602.1878      388.69114      361.71972      24690.486     -19695.39       5356.8158      10.2         
     10400   297.4702       37842.39       18673.061      56515.45      -569.97992     -1246.5979      32.600458     -495.94235      0.0020778398  -0.0026545317   0.001031579    0.00208       -0.0026580613   0.0010310473   0.0020778398  -14.9048       -9.2772365     -13.621735     -3.3040399     -0.77822482     4.1042932      59.563796      53.687143      62.169557      3              198806.44      1.2073022      12552.271      22033.951     -2557.0671      406.78187      415.75414      24683.298     -19692.599      5406.4533      10.4         
     10600   299.08403      37840.818      18774.365      56615.184     -117.99411     -756.09391      44.603802      357.50778      0.002117756   -0.0024488981   0.0014822963   0.00212       -0.0024519015   0.0014811988   0.002117756    7.5119424      2.4849152     -0.35931106    -5.7149233     -7.175894       10.79789       59.576077      53.711316      62.172039      3              198944.9       1.2064619      12558.87       22179.452     -2651.0534      402.62339      326.97164      24716.76      -19692.806      5350.9263      10.6         
     10800   297.47845      38151.607      18673.578      56825.186     -458.94915     -748.28174      114.15622     -742.72192      0.0021576706  -0.0024550017   0.00089519152  0.00216       -0.0024580202   0.00089479107  0.0021576706   9.6321288      11.739979      27.277317      8.6295738     -16.959474     -4.4022952      59.575713      53.679828      62.174521      3              198834.99      1.2071288      12682.065      22247.547     -2594.0254      403.09505      345.58904      24764.491     -19697.154      5412.9257      10.8         
     11000   296.19042      37883.438      18592.725      56476.163      984.20504      1737.0908      885.37984      330.14453      0.0021975835  -0.0028828481   0.00010344009  0.0022        -0.0028870116   0.00010343474  0.0021975835  -0.17756627     7.0491324      10.675031      14.47444      -2.5892832     -8.7474716      59.550161      53.637365      62.177002      3              198600.42      1.2085546      12652.587      22190.667     -2754.7875      404.58789      394.57483      24688.097     -19692.289      5390.3826      11           
     11200   298.14968      37769.795      18715.714      56485.509      112.29576      102.8183       603.05796     -368.989        0.0022374949  -0.0031152347  -0.00084837518  0.00224       -0.0031200972  -0.00084873525  0.0022374949  -5.3248        -12.691477      13.881941     -3.1121946     -13.899181      7.6149738      59.536282      53.586318      62.179484      3              198373.08      1.2099396      12520.385      22183.341     -2684.3444      379.35234      306.13465      24756.004     -19691.078      5371.061       11.2         
     11400   299.29965      37973.4        18787.901      56761.3       -163.53365     -798.05751      802.82217     -495.36561      0.0022774047  -0.0035468579  -0.00040226507  0.00228       -0.0035531629  -0.000402346    0.0022774047  -7.3787733     -15.446719      0.26471632     3.7543308     -21.134088      5.9910109      59.510504      53.610243      62.181965      3              198383.64      1.2098752      12662.684      22164.301     -2521.1836      391.54782      252.05122      24717.513     -19693.514      5276.051       11.4         
     11600   297.59011      37935.998      18680.588      56616.586      170.03082     -399.93866      551.82013      358.21099      0.002317313   -0.0031972358  -3.2487763e-06  0.00232       -0.0032023578  -3.2487816e-06  0.002317313   -1.0788198      11.707703      38.714318     -0.81212481    -10.010406      2.4511035      59.531385      53.631643      62.184447      3              198540.39      1.20892        12699.583      22180.839     -2629.128       402.89023      253.66837      24724.098     -19695.952      5281.8141      11.6         
     11800   296.14471      37830.999      18589.856      56420.855     -508.01589     -657.12487     -234.10571     -632.8171       0.0023572196  -0.0035932061  -0.00037985003  0.00236       -0.0035996772  -0.00037992219  0.0023572196   9.8031394     -0.92574919     20.396542     -1.4521918     -18.445354      6.9181004      59.507736      53.611446      62.186929      3              198394.7       1.2098077      12622.103      21983.33      -2520.0126      388.94142      262.41018      24785.109     -19690.882      5356.6377      11.8         
     12000   298.83778      37983.946      18758.907      56742.853     -74.698975      635.46058      190.91409     -1050.4716      0.0023971246  -0.0038383368  -0.00092935077  0.0024        -0.0038457221  -0.00092978289  0.0023971246  -6.4061824      11.441156      30.265239     -8.3150896     -12.242379      12.402222      59.493097      53.581975      62.18941       3              198244.77      1.2107227      12568.767      22121.31      -2438.5039      403.22829      273.06223      24749.938     -19693.855      5329.1449      12           
     12200   297.56588      37874.555      18679.067      56553.621     -380.41709     -204.62761      6.1246117     -942.74826      0.002437028   -0.0027498321  -0.0027482688   0.00244       -0.0027536199  -0.0027520522   0.002437028   -30.097401     -10.877294      5.4829679     -5.67036       -25.262385     -11.793109      59.558105      53.484423      62.191892      3              198107.97      1.2115587      12552.712      22028.42      -2551.2703      402.97957      387.66604      24749.992     -19695.945      5441.7127      12.2         
     12400   298.89318      37634.697      18762.385      56397.083     -23.683111      232.02598      774.76045     -1077.8358      0.0024769299  -0.00046885077 -0.0035814827   0.00248       -0.00046896071 -0.0035879115   0.0024769299   5.1349341     -9.7283273     -2.2047567     -1.8108623     -22.310156      7.5304549      59.69433       53.439736      62.194374      3              198403.12      1.2097564      12547.778      22050.863     -2688.4027      399.56718      316.25841      24704.712     -19696.078      5324.8923      12.4         
     12600   299.15258      37878.012      18778.668      56656.68       423.98215      130.58258      509.06943      632.29445      0.0025168301   0.0010974902  -0.0043598163   0.00252        0.0010968884  -0.0043693481   0.0025168301   16.381285      7.6339216      11.075056      15.41068      -18.561591      3.2976466      59.787876      53.397993      62.196855      3              198566.73      1.2087596      12507.142      22148.732     -2615.6954      405.82073      422.49613      24702.832     -19693.316      5432.0125      12.6         
     12800   296.33255      37792.308      18601.647      56393.955     -745.13577      36.002586     -1204.0125     -1067.3974      0.0025567288   0.0018362728  -0.005274311    0.00256        0.001834589   -0.0052882693   0.0025567288   23.928717      15.961099      38.245954     -3.1296947     -16.21183       12.244397      59.831997      53.348947      62.199337      3              198538.67      1.2089304      12634.911      22135.758     -2682.188       398.74217      222.92636      24773.439     -19691.281      5305.0848      12.8         
     13000   294.22478      37968.027      18469.336      56437.363     -459.22283     -1021.6578     -110.33727     -245.67341      0.0025966258   0.00049569723 -0.0078948078   0.0026         0.00049557441 -0.0079261368   0.0025966258   13.06851       8.2864277      27.821655      2.9032653     -6.0532841     -2.0146028      59.751935      53.208405      62.201818      3              197758.56      1.2136994      12570.227      22209.023     -2587.4009      404.60383      357.61213      24705.478     -19691.516      5371.574       13           
     13200   298.17045      37898.368      18717.017      56615.385     -31.707915     -834.76498      894.5804      -154.93916      0.0026365213   0.00030349831 -0.0085202829   0.00264        0.00030345227 -0.008556788    0.0026365213  -41.173013     -49.755059     -38.608936      4.8934633     -12.358953     -6.5997791      59.740457      53.174859      62.2043        3              197603.8       1.2146499      12552.796      22295.381     -2686.0521      402.16792      300.39458      24727.253     -19693.573      5334.0751      13.2         
     13400   294.92845      37914.366      18513.508      56427.874     -692.63026     -1113.4677      142.86756     -1107.2907      0.0026764152   0.0027862351  -0.0056871281   0.00268        0.0027823607  -0.0057033614   0.0026764152  -11.735473     -20.59001       18.689481      6.91789       -12.843562     -13.227821      59.888731      53.326807      62.206782      3              198668.23      1.208142       12614.538      22124.009     -2589.073       400.41281      371.02538      24683.098     -19689.644      5364.4794      13.4         
     13600   292.36212      37768.269      18352.412      56120.681     -370.2601      -573.54613      326.2215      -863.45568      0.0027163075   0.0035659417  -0.0042878185   0.00272        0.0035595988  -0.0042970375   0.0027163075   39.050978      19.11952       30.340439     -0.49080147    -14.229001      0.72704156     59.935297      53.401854      62.209263      3              199110.45      1.2054588      12600.255      22120.699     -2653.1269      395.20001      297.6707       24699.455     -19691.883      5305.2428      13.6         
     13800   296.09453      37943.646      18586.706      56530.352     -42.225728      25.471535      16.136774     -168.28549      0.0027561982   0.0017483532  -0.0048359003   0.00276        0.0017468266  -0.0048476311   0.0027561982   21.937085      11.667407      13.993347      4.845662      -11.325951      11.01688       59.826747      53.37246       62.211745      3              198648.36      1.2082629      12703.218      22119.335     -2650.8662      406.81532      341.41184      24712.753     -19689.021      5365.1437      13.8         
     14000   300.72371      37854.89       18877.293      56732.183     -686.03622     -76.743145     -780.639       -1200.7265      0.0027960873  -0.00061924191 -0.0039978997   0.0028        -0.00061943372 -0.0040059127   0.0027960873  -4.6703574     -15.873125      19.77797      -0.34542427    -22.688604      9.941296       59.685348      53.417403      62.214226      3              198353.66      1.2100581      12492.546      22116.981     -2495.5493      401.13359      299.57045      24732.373     -19692.166      5339.7781      14           
     14200   297.43416      37687.38       18670.799      56358.179     -146.5522       799.44041     -1038.7921     -200.3049       0.0028359748  -0.0022480742  -0.0034627156   0.00284       -0.0022506049  -0.0034687247   0.0028359748  -2.3587387      6.3574484      8.5420801     -2.9764625     -23.470542      4.3538687      59.588071      53.446106      62.216708      3              198144.68      1.2113342      12490.139      22077.465     -2702.7501      406.09368      378.5203       24732.83      -19694.916      5416.4335      14.2         
     14400   298.28739      37792.258      18724.358      56516.616     -216.29007      530.61182      208.34986     -1387.8319      0.0028758607  -0.0022220608  -0.0027219669   0.00288       -0.0022245333  -0.0027256782   0.0028758607  -17.723598      3.2614005     -21.738954      2.5481619     -13.984537      4.6876624      59.589624      53.485834      62.21919       3              198305.05      1.2103547      12622.453      22159.296     -2700.8257      407.91962      235.32138      24762.254     -19694.16       5303.4152      14.4         
     14600   298.16571      37931.706      18716.72       56648.427      845.21803      1357.602       588.6034       589.44866      0.0029157451  -0.0016593075  -0.0031043601   0.00292       -0.0016606857  -0.0031091886   0.0029157451  -4.9650979      12.09921      -7.5047486     -4.3302865     -17.836658      13.686354      59.623233      53.465325      62.221671      3              198348.72      1.2100882      12661.802      22290.861     -2756.5014      386.36198      309.66851      24733.724     -19694.209      5349.1829      14.6         
     14800   295.86714      37961.468      18572.432      56533.9       -623.8479      -761.99827     -703.98743     -405.55801      0.0029556278   0.00041927713 -0.0030196687   0.00296        0.00041918925 -0.0030242371   0.0029556278  -10.526378     -27.523393      26.609248     -9.6463821     -19.41322       7.000681       59.747371      53.469867      62.224153      3              198786.51      1.2074232      12467.923      22247.127     -2588.3096      417.22979      367.5335       24740.711     -19690.747      5417.4974      14.8         
     15000   295.93402      37706.251      18576.63       56282.881     -113.90135      280.62113     -730.62411      108.29893      0.002995509    0.0017489266  -0.0020273918   0.003          0.0017473991  -0.0020294498   0.002995509    16.484105      7.1263287      28.802144      3.4445594     -10.684592      18.080843      59.826781      53.523085      62.226635      3              199256.77      1.2045736      12636.695      22177.846     -2924.4389      405.40942      343.90549      24759.519     -19692.685      5410.7399      15           
     15200   295.00759      38049.811      18518.476      56568.287      299.84901      408.8482       132.58947      358.10938      0.0030353885   0.0018250545  -0.0022396482   0.00304        0.0018233911  -0.00224216     0.0030353885  -6.1483351      5.8474895      17.351993      2.2712793     -16.179065     -3.5860344      59.831328      53.511701      62.229116      3              199237.48      1.2046902      12607.39       22230.648     -2713.8358      400.55924      453.5023       24764.762     -19693.214      5525.0501      15.2         
     15400   297.05422      38017.054      18646.948      56664.003     -657.97773     -1298.9455     -232.20097     -442.78669      0.0030752665   0.0014475314  -0.0018774109   0.00308        0.0014464848  -0.0018791755   0.0030752665   19.83578      -12.83085       23.011105     -13.776964     -16.230177     -6.0507194      59.808781      53.531129      62.231598      3              199242.65      1.204659       12554.615      22238.781     -2620.5881      418.88995      411.92453      24704.462     -19691.031      5425.3562      15.4         
     15600   295.9996       37733.452      18580.747      56314.199     -4.4918376     -321.5157       695.90653     -387.86635      0.0031151429  -0.0011795791  -0.00043130353  0.00312       -0.0011802754  -0.00043139656  0.0031151429   20.775394     -2.2589996      30.96434       3.030613      -20.364587     -7.2566479      59.651884      53.608686      62.234079      3              199015.82      1.206032       12553.469      22228.996     -2687.6286      391.65666      258.66161      24681.678     -19693.381      5246.9588      15.6         
     15800   297.8299       37962.835      18695.64       56658.475     -1033.2632     -675.90562     -1022.6634     -1401.2206      0.0031550177  -0.0044215266   0.00013057973  0.00316       -0.0044313305   0.0001305712   0.0031550177  -3.9908082      17.51805       8.9776533     -7.5491885     -5.6995412      4.1004191      59.458267      53.638821      62.236561      3              198489.28      1.2092312      12609.96       22207.933     -2572.4672      387.60663      314.61031      24708.859     -19693.667      5329.802       15.8         
     16000   300.71093      37785.993      18876.491      56662.484     -1103.642      -571.06531     -1015.5257     -1724.3349      0.0031948909  -0.00558845     0.00055829224  0.0032        -0.0056041238   0.00055813645  0.0031948909  -18.629092     -15.937376      22.526572     -7.9365033     -9.7105205     -5.2097728      59.388576      53.66176       62.239043      3              198349.32      1.2100845      12517.845      22067.266     -2468.7824      413.08555      206.80717      24741.14      -19691.369      5256.5782      16           
     16200   296.58455      37788.448      18617.466      56405.914      424.59886      192.16728      399.7963       681.83301      0.0032347625  -0.0050117032   0.001227933    0.00324       -0.0050243039   0.0012271797   0.0032347625  -18.858712      3.785982       4.9821338      6.2599085     -22.030144      10.663836      59.42302       53.697674      62.241524      3              198605.11      1.208526       12554.628      22046.872     -2611.2198      398.39293      397.4432       24695.115     -19692.784      5399.7737      16.2         
     16400   301.84416      37853.567      18947.627      56801.194     -260.05828     -837.41834      614.78541     -557.54192      0.0032746325  -0.0039206389   0.0018330868   0.00328       -0.0039283447   0.0018314088   0.0032746325   11.305385     -0.40608165     22.090904      16.803536      2.2183421      15.278833      59.488181      53.730129      62.244006      3              198950.99      1.2064249      12468.746      22308.177     -2754.4502      388.40089      381.83175      24750.145     -19689.284      5442.6932      16.4         
     16600   298.97361      37796.791      18767.434      56564.225     -910.01902     -1081.882      -287.02896     -1361.1461      0.003314501   -0.0032051227   0.0029059958   0.00332       -0.0032102701   0.0029017816   0.003314501   -11.287132     -20.13187       27.196889      4.2593669     -15.405456      15.336754      59.530914      53.787672      62.246488      3              199315.07      1.2042212      12429.672      22145.779     -2575.2435      417.68889      330.70855      24737.661     -19689.475      5378.895       16.6         
     16800   296.54338      37792.557      18614.882      56407.438      106.19655      403.48376      580.1008      -664.99491      0.0033543678  -0.0034676395   0.0026268088   0.00336       -0.0034736657   0.0026233647   0.0033543678   13.451165      43.637932      9.2378051     -17.195421     -6.830815       8.0798843      59.515235      53.772698      62.248969      3              199215.05      1.2048258      12598.924      22121.347     -2720.7182      397.9017       354.26946      24733.622     -19692.79       5395.1015      16.8         
     17000   301.38716      37863.333      18918.939      56782.273      737.13358      1049.636       1182.1205     -20.355789      0.0033942331  -0.0033380355   0.0011243723   0.0034        -0.0033436191   0.0011237407   0.0033942331  -11.517532     -6.5534581     -5.1710804      2.1587396     -18.390738      5.9713082      59.522976      53.69212       62.251451      3              198950.33      1.206429       12466.37       22098.332     -2542.5498      385.11821      445.30373      24703.616     -19692.858      5456.062       17           
     17200   296.89819      37857.972      18637.154      56495.126      1044.8904      1151.3992      722.84634      1260.4256      0.0034340967  -0.003298493    5.7330119e-05  0.00344       -0.003303945    5.7328476e-05  0.0034340967   9.6604814     -4.963072      -9.6345443     -6.536801      -16.837433      8.3580756      59.525337      53.634892      62.253932      3              198754.09      1.2076201      12714.881      22085.166     -2770.1009      397.13699      420.74997      24701.511     -19691.371      5430.8899      17.2         
     17400   296.39417      37879.136      18605.515      56484.651     -697.14243     -307.64834     -1433.1669     -350.61204      0.0034739588  -0.003165132   -0.0011512514   0.00348       -0.0031701516  -0.0011519146   0.0034739588  -2.7379325      8.1366707      13.11094       22.327234     -7.9102433     -7.531808       59.533302      53.570074      62.256414      3              198548.37      1.2088714      12693.892      22043.761     -2576.9984      397.70847      312.73526      24701.974     -19693.937      5320.7731      17.4         
     17600   301.67379      37898.58       18936.932      56835.513     -955.96324     -434.79492     -696.1774      -1736.9174      0.0035138193  -0.0022439974  -0.0017782001   0.00352       -0.002246519   -0.001779783    0.0035138193  -7.9607568     -25.616966      18.164494      14.689308     -9.7070475      14.918125      59.588314      53.53645       62.258896      3              198615.02      1.2084657      12506.866      22204.203     -2562.2281      411.23392      345.45587      24688.875     -19695.825      5338.5057      17.6         
     17800   298.20946      37790.072      18719.466      56509.538     -67.388         688.03579      74.912503     -965.1123       0.0035536782  -0.00074489312 -0.00095676442  0.00356       -0.00074517069 -0.00095722241  0.0035536782  -11.85081      -4.2119736      3.7471267      17.894157      11.901811      3.0859799      59.677844      53.580505      62.261377      3              199085.05      1.2056126      12501.812      22167.713     -2618.9642      395.13775      295.61843      24742.278     -19693.523      5344.3736      17.8         
     18000   296.15825      37955.523      18590.706      56546.229      304.19167      1271.5406     -109.10107     -249.86453      0.0035935355  -0.00047852732 -0.0010777413   0.0036        -0.00047864185 -0.0010783224   0.0035935355   25.907386      16.479202      49.134428      4.2608837     -12.083323      12.118495      59.693752      53.574016      62.263859      3              199121.94      1.2053892      12699.764      22158.475     -2675.0563      406.92544      285.06316      24771.383     -19691.032      5365.414       18           
     18200   298.5192       38107.864      18738.91       56846.774      591.19171      624.63052      1128.8489      20.095697      0.0036333912  -0.00081711433 -0.0012674463   0.00364       -0.00081744835 -0.0012682502   0.0036333912  -4.9739798     -11.243458      17.510861      10.92023      -21.047957      1.1619962      59.673531      53.563842      62.266341      3              199024.62      1.2059786      12741.958      22271.228     -2701.8145      419.61291      335.75011      24734.049     -19692.92       5376.8794      18.2         
     18400   296.0849       37882.992      18586.101      56469.093      676.13933      567.20526      1067.358       393.85471      0.0036732454  -0.0010389713  -0.0012387005   0.00368       -0.0010395114  -0.0012394683   0.0036732454   2.1730439      1.5177239      26.671926     -1.2378057     -10.363902      8.4202326      59.660281      53.565384      62.268822      3              198994.09      1.2061637      12678.524      22097.997     -2699.6789      405.40925      368.27115      24727.161     -19694.691      5400.741       18.4         
     18600   297.11845      37916.155      18650.98       56567.135      74.500208     -825.6585       206.57169      842.58744      0.0037130979  -0.0014762263  -0.00066893804  0.00372       -0.001477317   -0.00066916188  0.0037130979  -11.842464     -11.543211      25.061355      2.269977      -11.689079      1.4744083      59.634167      53.595941      62.271304      3              199028.39      1.2059558      12588.013      22112.185     -2659.5914      408.14527      399.95977      24762.072     -19694.628      5467.4036      18.6         
     18800   300.44612      37984.091      18859.868      56843.959      323.96815     -235.02444     -85.912986      1292.8419      0.0037529489  -0.0010112117   0.00078049432  0.00376       -0.0010117233   0.0007801899   0.0037529489   3.7828769      2.7079768      3.7568911      16.113644     -10.879154      7.3293983      59.661939      53.673677      62.273785      3              199417.83      1.2036007      12726.665      22120.914     -2688.2625      392.38517      353.12965      24770.937     -19691.677      5432.3897      18.8         
     19000   297.24256      37995.841      18658.771      56654.612     -401.61624     -1506.267      -168.95006      470.36829      0.0037927982  -0.0018624036   0.0020528784   0.0038        -0.0018641401   0.0020507742   0.0037927982   27.276567      14.040262      45.350724      4.1942113     -17.062562      23.558528      59.611104      53.741917      62.276267      3              199509.18      1.2030496      12608.822      22140.151     -2553.4332      420.06476      364.11063      24710.93      -19694.805      5380.236       19           
     19200   297.69669      37821.603      18687.278      56508.881      73.329567      378.46961     -102.4393      -56.041612      0.003832646   -0.0047559852   0.0017290052   0.00384       -0.0047673309   0.0017275122   0.003832646   -7.5848187      16.655206      19.286033      0.49395539    -9.3443448      17.391584      59.438292      53.724547      62.278749      3              198874.44      1.2068893      12462.42       22211.695     -2609.9271      401.00935      369.47462      24681.808     -19694.877      5356.4059      19.2         
     19400   296.78756      37837.859      18630.21       56468.069      665.78815      1410.1499      554.19214      33.022427      0.0038724922  -0.0066795799   0.0013387385   0.00388       -0.0067019881   0.0013378432   0.0038724922  -6.7777905     -11.522276     -10.516832     -4.1473644      6.9118299      8.3152503      59.323411      53.703617      62.28123       3              198420.63      1.2096496      12590.149      22167.519     -2719.4622      411.26987      354.76678      24725.033     -19691.417      5388.3836      19.4         
     19600   298.16042      37566.162      18716.388      56282.55       389.83564      821.72405      33.096581      314.68628      0.0039123368  -0.0068824153   0.00091972292  0.00392       -0.0069062083   0.00091930023  0.0039123368  -29.478821      9.2334816      22.491796      2.7822071     -22.027593      5.8457225      59.311297      53.681144      62.283712      3              198305         1.2103549      12489.426      22034.451     -2655.7189      389.60871      268.58734      24732.44      -19692.632      5308.3956      19.6         
     19800   297.04142      38021.14       18646.145      56667.285     -185.23772     -997.02091     -132.15899      573.46675      0.0039521798  -0.0052120006   2.3059484e-06  0.00396       -0.0052256305   2.3059458e-06  0.0039521798  -8.744436      -4.1477563     -5.2750108     -2.7947904     -7.9205112     -10.868468      59.411058      53.631941      62.286193      3              198464.39      1.2093829      12617.962      22120.6       -2553.6001      417.55126      402.30202      24706.624     -19690.3        5418.6265      19.8         
     20000   297.19426      37857.454      18655.739      56513.193     -289.70906     -168.08955     -485.92369     -215.11395      0.0039920213  -0.0013580281   0.00073073865  0.004         -0.0013589511   0.00073047179  0.0039920213  -14.976918     -20.533852      22.140334     -2.2586361     -22.421553     -14.058568      59.641226      53.671009      62.288675      3              199386.35      1.2037908      12540.616      22167.664     -2641.1089      407.4853       369.14633      24710.158     -19696.507      5382.7974      20           
     20200   296.79248      37621.718      18630.519      56252.237     -91.740655     -73.652769      407.10601     -608.67521      0.0040318611   0.00079995773  0.0012021789   0.00404        0.00079963793  0.0012014568   0.0040318611   33.366679      15.902193      31.253157      8.1877022     -14.996367     -10.65042       59.770106      53.696293      62.291157      3              199919.3       1.2005816      12413.386      22172.645     -2806.3059      386.57767      429.53299      24720.724     -19694.841      5455.4159      20.2         
     20400   299.10304      37863.379      18775.559      56638.938     -572.77742      526.32877     -1514.047      -730.61402      0.0040716994  -0.00040979635  0.00078558497  0.00408       -0.00040988034  0.00078527656  0.0040716994   13.239697      1.5115896      28.891718     -1.085137      -2.697674       3.7668672      59.697857      53.67395       62.293638      3              199602.51      1.2024871      12476.832      22129.218     -2595.5582      415.94694      439.67707      24690.518     -19693.255      5436.9407      20.4         
     20600   298.44324      37934.039      18734.141      56668.18      -342.8021      -419.57698      75.190034     -684.01934      0.004111536    0.00025343645  0.0014176569   0.00412        0.00025340434  0.001416653    0.004111536   -2.4678731      0.20201694     14.859765     -11.055816     -11.677592      10.91567       59.737467      53.707849      62.29612       3              199869.06      1.2008834      12484.451      22207.166     -2456.1966      409.20232      293.8524       24687.259     -19691.696      5289.416       20.6         
     20800   297.09762      37786.96       18649.673      56436.633      338.36361     -572.64618      791.00974      796.72727      0.0041513711  -0.00011813929  0.0001324819   0.00416       -0.00011814627  0.00013247313  0.0041513711  -4.5275774     -3.3355535      21.47738       5.66759       -3.8732349      1.6262613      59.715275      53.638923      62.298602      3              199546.35      1.2028255      12539.342      22006.408     -2652.0618      371.38307      495.98132      24716.871     -19690.963      5521.8894      20.8         
     21000   300.66507      37869.243      18873.612      56742.855      118.9203      -124.3917       458.93286      22.219749      0.0041912046  -0.00036198201 -0.00037144031  0.0042        -0.00036204754 -0.00037150931  0.0041912046   8.961898       4.9058326      28.296113     -13.511921     -6.0801762      2.0385346      59.700713      53.611897      62.301083      3              199405.11      1.2036775      12595.639      22183.468     -2721.1934      400.00125      361.37559      24738.135     -19688.183      5411.3278      21           
     21200   302.13841      38076.267      18966.098      57042.365      543.81902      760.15184      1001.5696     -130.26434      0.0042310365  -0.0013883196  -0.00076271529  0.00424       -0.0013892842  -0.00076300631  0.0042310365  -4.2419546     -25.922439      17.467159      8.8437661     -20.688809      7.4103914      59.639417      53.590912      62.303565      3              199130.34      1.2053384      12534.719      22207.931     -2628.5799      416.91941      483.93645      24749.627     -19688.285      5545.2783      21.2         
     21400   296.89995      37948.092      18637.264      56585.356     -960.60855     -1059.2252     -1859.9652      37.36476       0.0042708669  -0.0031418503   0.00040355541  0.00428       -0.0031467963   0.000403474    0.0042708669   9.8055381      12.846586      33.197398      3.1218146      1.8265506      4.4027913      59.534692      53.653461      62.306046      3              199020.61      1.2060029      12521.976      22137.636     -2558.4445      406.50601      364.55182      24767.01      -19691.144      5440.418       21.4         
     21600   297.52913      37786.311      18676.76       56463.071      163.99552      323.442        13.209432      155.33513      0.0043106956  -0.0044519732   0.0010587118   0.00432       -0.0044619128   0.0010581517   0.0043106956  -11.787816      4.1015153      4.5273432      0.68836629    -15.773491      14.414908      59.456449      53.688598      62.308528      3              198897.13      1.2067516      12494.6        22196.783     -2658.9614      407.62348      262.60014      24775.156     -19691.49       5346.2653      21.6         
     21800   298.01484      38107.501      18707.25       56814.75       1349.4012      1565.3936      1950.5515      532.25839      0.0043505227  -0.0051361266   0.0011999217   0.00436       -0.0051493619   0.0011992023   0.0043505227  -2.4661283     -4.0271326      4.0740521     -2.5344493     -14.244895      8.7188192      59.41559       53.696172      62.31101       3              198796.4       1.2073631      12765.605      22148.636     -2623.5109      401.75824      397.52042      24709.032     -19691.54       5415.0118      21.8         
     22000   298.74424      37891.924      18753.036      56644.961     -358.78879     -282.31594      252.33146     -1046.3819      0.0043903483  -0.0052869853   0.0032651002   0.0044        -0.0053010108   0.0032597814   0.0043903483   3.3368837     -6.5699215      47.002157     -0.92809695    -9.8451451     -9.2391706      59.40658       53.806931      62.313491      3              199184.19      1.2050125      12589.168      22047.827     -2487.3628      396.50262      346.69865      24693.138     -19694.047      5345.7902      22           
     22200   298.63516      37794.469      18746.189      56540.658     -775.17689     -303.19042     -681.46702     -1340.8732      0.0044301723  -0.0065871387   0.0041109611   0.00444       -0.0066089297   0.0041025342   0.0044301723  -11.876053      9.5416526      37.267945      6.8321655     -15.077448     -2.9096898      59.328932      53.852296      62.315973      3              199099.48      1.2055252      12325.571      22011.331     -2462.2681      407.59553      488.33661      24715.433     -19691.529      5512.2405      22.2         
     22400   298.98567      38009.172      18768.191      56777.363     -601.59358      685.828       -1711.101      -779.50779      0.0044699947  -0.0066739813   0.0050229527   0.00448       -0.0066963519   0.0050103797   0.0044699947  -8.5151715      12.97884       4.9447889     -4.599067      -10.37157       19.061657      59.323745      53.901208      62.318455      3              199270.83      1.2044886      12720.727      22121.724     -2526.4445      398.45978      277.29867      24706.466     -19689.059      5294.7062      22.4         
     22600   299.98134      37861.646      18830.692      56692.338     -0.015083895    197.82518     -148.83593     -49.034504      0.0045098155  -0.0053357539   0.0052653851   0.00452       -0.0053500398   0.0052515715   0.0045098155  -14.065222     -5.4661892     -4.483655       2.0058917     -5.8654678     -0.044243256    59.403667      53.91421       62.320936      3              199595.37      1.2025301      12530.074      22168.136     -2639.003       415.8637       396.00848      24683.086     -19692.518      5386.5762      22.6         
     22800   296.49257      37907.949      18611.692      56519.641     -395.51406      118.04822     -695.09028     -609.50012      0.0045496347  -0.0039416313   0.0041604974   0.00456       -0.00394942     0.0041518665   0.0045496347   24.920826      23.881369      42.188419      8.9664804      3.4944331      0.067275399    59.486928      53.854953      62.323418      3              199663.39      1.2021204      12566.978      22014.792     -2631.2171      402.44217      519.49579      24729.84      -19694.381      5554.9547      22.8         
     23000   299.35102      37952.54       18791.125      56743.665     -619.78558     -394.35479     -1309.0357     -155.96626      0.0045894523  -0.0032469265   0.0017444159   0.0046        -0.0032522092   0.0017428962   0.0045894523   22.148789      14.016133      33.218403      7.3476516     -12.987804     -6.9381876      59.528417      53.725374      62.325899      3              199329.85      1.204132       12631.546      22164.786     -2587.4107      394.17992      264.97942      24780.252     -19695.793      5349.4393      23           
     23200   298.67762      37951.829      18748.854      56700.682      269.62388      420.59973      309.44232      78.829591      0.0046292684  -0.0036945457  -0.0020552792   0.00464       -0.0037013874  -0.0020573942   0.0046292684  -27.549855     -27.320888     -8.6824647      15.049841      6.6485944     -2.7319344      59.501684      53.521589      62.328381      3              198492.5       1.2092116      12578.225      22185.785     -2652.3563      404.3974       409.80755      24718.556     -19692.585      5435.7777      23.2         
     23400   298.75297      37781.211      18753.584      56534.795     -85.202823      65.213363      747.84917     -1068.671       0.0046690828  -0.0022064306  -0.0023698794   0.00468       -0.0022088683  -0.002372692    0.0046690828  -2.3705936     -33.16112       25.103025     -7.0323352     -7.3896393      3.5550875      59.590558      53.504717      62.330863      3              198734.22      1.2077409      12585.394      21929.535     -2496.465       409.00446      283.83692      24763.576     -19693.67       5353.7429      23.4         
     23600   299.83322      37909.199      18821.394      56730.593      894.55544      1977.1169      298.68099      407.8684       0.0047088957  -0.0010449175  -0.0013403691   0.00472       -0.0010454638  -0.0013412682   0.0047088957   8.7074679      1.0773104      15.16487       15.734413     -12.342345     -10.980976      59.659926      53.559931      62.333344      3              199178.82      1.205045       12558.798      22048.247     -2493.0504      415.76088      350.0933       24723.101     -19693.751      5379.4434      23.6         
     23800   296.22923      37858.296      18595.161      56453.457      682.91157      1259.2798      825.98058     -36.525684      0.004748707    0.00029084587 -0.00011328664  0.00476        0.00029080359 -0.00011329305  0.004748707   -13.394867     -10.766692      15.41877       11.14598      -0.41099385     2.4844955      59.739701      53.625742      62.335826      3              199698.17      1.2019111      12477.181      22185.665     -2707.1985      381.94355      518.02614      24693.375     -19690.696      5520.7056      23.8         
     24000   297.23123      37875.426      18658.06       56533.486     -1286.6558     -1174.3382     -1362.4843     -1323.1451      0.0047885167   0.0022757144   0.00083160657  0.0048         0.0022731289   0.00083126097  0.0047885167   25.329556      26.681758      59.327355     -1.2623424      1.0887072      19.991435      59.858242      53.676418      62.338308      3              200291.49      1.1983507      12421.835      22196.355     -2547.3982      416.99173      369.21779      24714.656     -19696.232      5387.6416      24           
     24200   298.60057      37997.992      18744.017      56742.009      20.740407     -28.45374       551.06078     -460.38582      0.0048283249   0.00081991758 -0.00031474496  0.00484        0.00081958163 -0.0003147945   0.0048283249   4.1130217     -12.275606      45.599715     -6.1028715     -12.933623      5.4706858      59.771298      53.614937      62.340789      3              199779.44      1.2014221      12669.614      22157         -2681.8869      420.51018      451.85955      24675.731     -19694.836      5432.7548      24.2         
     24400   296.90557      37855.296      18637.618      56492.914      464.75781      1058.1629      504.0227      -167.91215      0.0048681314  -0.0009283444  -0.00056157794  0.00488       -0.00092877558 -0.00056173569  0.0048681314   8.8631099      14.204946      10.174066     -12.648301     -18.187904      10.708684      59.666888      53.601699      62.343271      3              199389.15      1.2037738      12577.645      22023.133     -2640.623       403.69938      446.78421      24737.557     -19692.899      5491.4421      24.4         
     24600   296.72025      37885.537      18625.984      56511.521      252.33641      1679.8071     -972.8561       50.058277      0.0049079364  -0.0017177556  -0.00061154478  0.00492       -0.0017192326  -0.00061173185  0.0049079364  -16.919044     -13.552117      26.557279      5.8560538     -16.639316     -0.12282698     59.619743      53.599019      62.345752      3              199229.58      1.204738       12527.208      22080.187     -2656.8111      407.23071      477.35334      24740.74      -19690.37       5527.7226      24.6         
     24800   300.12133      37907.963      18839.48       56747.443      51.319689      239.45937      322.05403     -407.55433      0.0049477397  -0.0020094704  -0.00029298434  0.00496       -0.0020114921  -0.00029302727  0.0049477397  -3.3747763      3.8311518      32.692187     -1.3205044     -8.9148267      0.58535377     59.602321      53.616104      62.348234      3              199242.78      1.2046582      12650.214      22144.596     -2686.8894      413.7139       368.34623      24710.319     -19692.337      5386.3281      24.8         
     25000   298.46135      37803.522      18735.278      56538.8       -355.00277     -379.74802     -423.60757     -261.65274      0.0049875415  -0.0019433024   0.00069971115  0.005         -0.0019451931   0.00069946647  0.0049875415   13.500006     -11.323402      37.25358       4.7588239     -22.985828      5.6148826      59.606272      53.669344      62.350716      3              199461.78      1.2033355      12518.526      22052.699     -2631.6791      418.03963      418.19076      24720.294     -19692.549      5445.9361      25           
     25200   298.62373      37815.557      18745.471      56561.028     -495.5527      -173.83274     -574.91698     -737.90839      0.0050273417  -0.001806876    0.0021037251   0.00504       -0.0018085104   0.0021015154   0.0050273417  -11.438231      10.136876      19.436754     -12.000589     -12.969026     -15.087535      59.61442       53.744644      62.353197      3              199776.89      1.2014375      12540.06       21938.251     -2460.7838      406.35006      356.80995      24726.329     -19691.459      5391.6791      25.2         
     25400   300.26178      38139.418      18848.296      56987.714      397.10056     -400.47429      1433.1652      158.61072      0.0050671403  -0.0023107574   0.0019156715   0.00508       -0.0023134313   0.0019138389   0.0050671403   5.964728       14.871429      27.898007     -1.6539183     -1.311092      -8.8641243      59.584327      53.734559      62.355679      3              199646.52      1.202222       12638.315      22153.673     -2573.4027      416.11327      473.08642      24722.777     -19691.144      5504.7199      25.4         
     25600   296.99339      37965.285      18643.13       56608.415     -702.17767     -301.2951      -504.31724     -1300.9207      0.0051069374  -0.0032909412   0.0011157031   0.00512       -0.0032963683   0.0011150812   0.0051069374   6.5619254     -3.8240132      33.841884     -4.5087617     -28.25611       5.4160678      59.525788      53.691655      62.35816       3              199299.06      1.204318       12468.011      22132.795     -2504.9779      401.613        430.63878      24729.938     -19692.733      5467.843       25.6         
     25800   297.16521      37965.622      18653.915      56619.537     -556.06901      594.69056     -1477.734      -785.16362      0.0051467328  -0.004590115    0.0022592987   0.00516       -0.004600682    0.0022567503   0.0051467328  -15.805742     -14.378669      12.921353     -11.607418     -19.794077      9.512218       59.448199      53.752988      62.360642      3              199274.57      1.204466       12585.956      22182.904     -2633.041       412.67492      386.12376      24720.282     -19689.278      5417.1278      25.8         
     26000   296.94528      38072.405      18640.11       56712.515     -91.167459     -644.38878      813.56146     -442.67506      0.0051865267  -0.0047951806   0.0034514972   0.0052        -0.0048067144   0.0034455545   0.0051865267  -25.997277     -9.339582       17.115201      11.667514     -6.4494544      5.4139773      59.435952      53.816928      62.363124      3              199478.45      1.2032349      12584.411      22114.284     -2590.0429      414.88555      503.0914       24736.252     -19690.476      5548.8682      26           
     26200   299.31662      37784.609      18788.966      56573.575      290.93042      637.21702      377.72792     -142.15368      0.005226319   -0.0035984263   0.005327213    0.00524       -0.0036049162   0.0053130736   0.005226319    19.960733      32.036888      54.143912     -4.1063264     -20.296301      6.6134341      59.507425      53.917526      62.365605      3              200099.61      1.1994998      12433.637      22178.756     -2746.7755      401.77281      404.86669      24806.761     -19694.409      5517.2187      26.2         
     26400   295.44324      37878.605      18545.823      56424.428     -813.42668     -85.992758     -1077.5871     -1276.7002      0.0052661097  -0.0031956559   0.0049986023   0.00528       -0.0032007729   0.0049861508   0.0052661097  -0.29745168     22.872517      35.350787      8.1996565     -9.932095       6.7689212      59.531479      53.899902      62.368087      3              200123.03      1.1993594      12574.701      22086.494     -2569.4877      384.38451      367.41454      24726.341     -19691.242      5402.5134      26.4         
     26600   299.3948       37970.678      18793.873      56764.552     -90.492793     -937.9602       610.07664      56.40518       0.0053058988  -0.0014830474   0.0032474338   0.00532       -0.0014841482   0.0032421723   0.0053058988  -16.583949     -5.1162291      42.365366      0.36013505    -23.504507     -5.9148063      59.63376       53.805983      62.370569      3              200125.52      1.1993445      12618.854      22116.318     -2656.8349      399.28947      443.67976      24738.499     -19689.127      5493.0516      26.6         
     26800   297.23549      37840.59       18658.328      56498.918     -353.91569     -517.71476      124.33631     -668.36862      0.0053456863  -5.7461843e-05  0.0017967077   0.00536       -5.7463494e-05  0.0017950955   0.0053456863   16.790957      12.798853      29.302469      12.358747     -17.594265     -4.3057786      59.718899      53.728178      62.37305       3              200129.4       1.1993212      12560.379      22038.7       -2689.8354      385.36515      515.79846      24722.629     -19692.445      5545.9818      26.8         
     27000   295.95079      38166.146      18577.683      56743.829     -1.7896292      617.46772     -347.24657     -275.59004      0.0053854723  -0.0005177053  -4.8054423e-05  0.0054        -0.00051783936 -4.8055578e-05  0.0053854723   18.786793     -10.625185      40.072164     -3.992369      -13.290341      0.83200053     59.691412      53.62924       62.375532      3              199676.87      1.2020393      12642.092      22192.582     -2624.6899      403.44531      495.63002      24744.613     -19687.526      5552.717       27           
     27200   299.29894      37973.609      18787.856      56761.465     -662.58678     -1155.3687     -571.50042     -260.89122      0.0054252566  -0.0011345617  -0.00049234043  0.00544       -0.0011352058  -0.00049246167  0.0054252566  -10.088241     -8.4868893      37.924168      4.0147948     -15.958259     -13.506229      59.654572      53.605413      62.378013      3              199472.91      1.2032684      12696.568      22215.011     -2711.7402      387.52347      329.45608      24752.138     -19695.347      5386.2472      27.2         
     27400   296.67569      37953.563      18623.187      56576.75      -984.43404      768.34031     -1862.8943     -1858.7481      0.0054650394  -0.00070135991 -0.0010958897   0.00548       -0.00070160598 -0.0010964906   0.0054650394  -1.3860454      0.10300323     23.119646     -3.6700231     -12.420557      9.7643863      59.680444      53.573043      62.380495      3              199446.85      1.2034256      12658.101      22225.59      -2633.7015      396.43321      277.85144      24725.193     -19695.905      5307.1402      27.4         
     27600   299.25677      37803.939      18785.209      56589.148     -631.63984     -111.19937     -1007.8388     -775.88132      0.0055048206  -0.0009451714  -0.0018514054   0.00552       -0.00094561836 -0.0018531214   0.0055048206   3.6097578     -1.8004136      21.73278       9.6294222     -22.876048     -5.9675086      59.665883      53.532523      62.382977      3              199255.3       1.2045825      12580.702      22044.578     -2600.2953      402.98789      375.3729       24698.568     -19697.975      5375.9662      27.6         
[...]
    744000   298.62398      38096.834      18745.487      56842.321     -263.5419      -370.66183      1155.8228     -1575.7867      0.13871792    -0.040078728   -0.073092881    0.1488        -0.040904006   -0.075901913    0.13871792    -17.379317      2.0232039      137.34344     -6.7197374     -18.549483     -9.671677       57.328736      49.711714      71.272141      3              203119.17      1.1816681      12777.716      22227.302     -2803.3784      389.981        499.79997      24700.706     -19695.293      5505.2134      744          
    744200   297.93364      38088.209      18702.152      56790.361      108.41755      226.64649      1277.5473     -1178.9411      0.13875274    -0.039871545   -0.073005138    0.14884       -0.040688196   -0.075807256    0.13875274    -18.327474      0.87330852     133.88271     -9.863521      -29.954971     -6.2704994      57.341109      49.716419      71.274623      3              203189.31      1.1812602      12615.413      22201.131     -2845.5689      399.18068      707.6737       24703.993     -19693.614      5718.0532      744.2        
    744400   297.87203      38279.174      18698.285      56977.459     -1643.2538     -1867.3728     -639.77933     -2422.6094      0.13878755    -0.038365817   -0.071291656    0.14888       -0.039121168   -0.073960536    0.13878755     4.8021402     -10.482714      144.97515     -20.013842     -16.851916     -8.6402533      57.431035      49.808317      71.277105      3              203891.23      1.1771935      12627.118      22139.983     -2537.5955      420.71008      624.85621      24696.24      -19692.138      5628.9581      744.4        
    744600   298.13015      38138.784      18714.488      56853.271     -871.43982     -1192.6631     -581.46575     -840.19058      0.13882237    -0.037981613   -0.070161024    0.14892       -0.038721716   -0.072743852    0.13882237     20.760364      16.156975      165.79826     -13.420691     -5.3797208     -18.405556      57.453981      49.868954      71.279586      3              204228.13      1.1752516      12586.837      22217.69      -2693.9831      400.07313      640.05926      24683.194     -19695.088      5628.1658      744.6        
    744800   296.39382      38109.461      18605.493      56714.954     -131.24516      161.96891      313.23826     -868.94264      0.13885719    -0.038351065   -0.07020212     0.14896       -0.039105827   -0.07278805     0.13885719     6.8841217      15.285298      148.2044      -11.821368     -7.7850868     -10.449042      57.431916      49.86675       71.282068      3              204147.78      1.1757142      12500.39       22242.057     -2720.4608      394.02265      702.76752      24684.113     -19693.43       5693.4512      744.8        
    745000   297.15393      38384.962      18653.208      57038.17      -30.951986      804.40625      516.91732     -1414.1795      0.138892      -0.039369561   -0.071813456    0.149         -0.040165503   -0.074522549    0.138892      -16.897739      0.53651721     128.68337     -7.2995526     -20.893148     -7.3816224      57.371089      49.780332      71.28455       3              203585.24      1.1789629      12872.351      22316.299     -2899.5315      398.09671      731.38086      24658.545     -19692.179      5697.7471      745          
    745200   296.97413      38149.494      18641.921      56791.415     -858.11533     -570.23757      476.04591     -2480.1543      0.13892681    -0.039248697   -0.07403048     0.14904       -0.040039694   -0.07691396     0.13892681    -28.896551     -11.321698      139.59024     -15.234714     -9.9991988     -2.3909811      57.378307      49.661428      71.287031      3              203131.59      1.1815958      12711.322      22227.646     -2770.0667      419.01146      625.82028      24630.859     -19695.097      5561.5818      745.2        
    745400   297.08495      38157.173      18648.878      56806.051     -146.13301      758.24404     -96.332527     -1100.3105      0.13896162    -0.037791883   -0.074463512    0.14908       -0.038524514   -0.077381723    0.13896162     1.4581226     -41.944505      78.196541     -4.53915       -9.993357       4.4522642      57.465312      49.638204      71.289513      3              203351.54      1.1803178      12555.796      22222.248     -2730.3356      415.74525      694.9382       24692.191     -19693.409      5693.7201      745.4        
    745600   300.96371      38265.794      18892.358      57158.153     -1054.3111     -982.10178     -204.17888     -1976.6527      0.13899643    -0.03677645    -0.073182518    0.14912       -0.037469755   -0.075998624    0.13899643     37.688391      9.2385721      171.31101     -9.9709624     -5.6960374      5.6595765      57.525956      49.706906      71.291994      3              203854.99      1.1774028      12728.443      22239.003     -2746.4825      414.14329      630.86946      24690.828     -19691.01       5630.6875      745.6        
    745800   296.95189      38205.817      18640.525      56846.342     -380.4167       314.03251      262.74223     -1718.0249      0.13903124    -0.037084131   -0.073150822    0.14916       -0.037789234   -0.075964426    0.13903124     3.1676561      24.334033      165.92789     -10.72178      -8.7031949     -6.3576907      57.50758       49.708606      71.294476      3              203803.93      1.1776978      12691.737      22245.793     -2906.6753      404.96199      771.86097      24689.655     -19691.516      5770           745.8        
    746000   297.13604      38121.332      18652.085      56773.417     -382.12473     -304.63889      98.405182     -940.14047      0.13906605    -0.036737008   -0.073254292    0.1492        -0.037428808   -0.076076068    0.13906605    -10.457738     -20.655363      122.78229      3.1358336     -12.271015     -14.564939      57.528311      49.703057      71.296958      3              203861.74      1.1773638      12685.132      22180.935     -2827.1729      401.27047      667.37589      24706.184     -19692.392      5681.1679      746          
    746200   299.47188      38257.823      18798.712      57056.535     -818.71378     -277.21907      324.67079     -2503.5931      0.13910085    -0.037475875   -0.072609704    0.14924       -0.038196148   -0.075380771    0.13910085     15.200119      4.1150614      125.99803     -3.2898735     -4.8560048      2.6889021      57.484184      49.737627      71.299439      3              203854.15      1.1774077      12682.938      22341.34      -2818.1615      397.74696      618.42993      24727.768     -19692.239      5653.9592      746.2        
    746400   299.05711      38076.787      18772.676      56849.462     -788.82543     -626.35346     -495.09572     -1245.0271      0.13913566    -0.038652064   -0.071475727    0.14928       -0.039418879   -0.074158756    0.13913566    -2.2446012      0.095885543    92.935753     -16.916131     -8.9363718      11.145939      57.41394       49.798445      71.301921      3              203861.1       1.1773676      12418.863      22285.38      -2773.1903      398.22148      757.48873      24683.174     -19693.15       5747.5125      746.4        
    746600   296.97924      38122.647      18642.242      56764.889     -232.03448      514.41557      18.954462     -1229.4735      0.13917046    -0.040984226   -0.069282432    0.14932       -0.041847756   -0.071799412    0.13917046     2.0793165     -19.214832      117.18985     -19.528997     -8.3077774     -16.479682      57.274657      49.916075      71.304402      3              203854.02      1.1774084      12576.069      22143.254     -2721.1123      409.95107      699.05688      24707.851     -19692.423      5714.4846      746.6        
    746800   298.6031       38292.035      18744.176      57036.211     -754.40831     -262.60611     -954.94701     -1045.6718      0.13920527    -0.042562098   -0.066627379    0.14936       -0.043494414   -0.068950779    0.13920527    -10.187988      10.353806      113.32231     -16.272792     -17.29369      -2.9034236      57.180423      50.05847       71.306884      3              204106.29      1.1759531      12676.057      22250.558     -2786.9609      420.41962      714.22839      24708.424     -19690.691      5731.9613      746.8        
    747000   296.96823      37997.292      18641.551      56638.843     -565.45169     -224.34439     -340.52541     -1131.4853      0.13924007    -0.043657083   -0.06575308     0.1494        -0.044638731   -0.068014508    0.13924007    -2.1522684      15.436385      136.86054     -11.883728     -13.579698     -4.6934357      57.115028      50.10536       71.309366      3              204070.94      1.1761569      12612.175      22080.805     -2755.5757      398.67023      728.67995      24624.718     -19692.181      5661.2169      747          
    747200   295.85304      38250.604      18571.547      56822.151     -625.1453      -122.42927     -180.07927     -1572.9273      0.13927487    -0.043745995   -0.066897546    0.14944       -0.044731706   -0.069240273    0.13927487    -9.6967458      20.619519      152.63491      5.053097      -11.263325      3.3759789      57.109718      50.043981      71.311847      3              203809.09      1.177668       12646.803      22293.606     -2794.2982      421.27118      647.0352       24728.158     -19691.971      5683.2221      747.2        
    747400   299.1143       38167.168      18776.265      56943.434     -415.49847     -288.47009      687.21469     -1645.24        0.13930967    -0.043687935   -0.068335778    0.14948       -0.044670991   -0.070782806    0.13930967    -6.2565493     -2.2615294      120.53231     -2.8858149     -25.34979      -3.1398007      57.113186      49.966846      71.314329      3              203514.39      1.1793733      12756.571      22276.921     -2906.9072      410.65578      620.38429      24700.244     -19690.701      5629.9276      747.4        
    747600   294.8436       38047.052      18508.182      56555.234     -375.67988      526.88479     -173.37305     -1480.5514      0.13934446    -0.043099194   -0.068782757    0.14952       -0.044055544   -0.071262686    0.13934446    -2.902995      -13.50741       113.65696     -15.285208     -16.623003      3.9916305      57.148347      49.942873      71.316811      3              203549.06      1.1791724      12536.49       22178.318     -2792.7841      399.5054       766.66306      24651.289     -19692.43       5725.5221      747.6        
    747800   296.71245      38200.071      18625.495      56825.566     -502.75024     -133.71707     -740.78687     -633.74679      0.13937926    -0.041559178   -0.067811909    0.14956       -0.042447458   -0.07022067     0.13937926    -6.5663238     -16.453502      113.92391     -7.6288206      2.2764289      8.9668702      57.24032       49.994942      71.319292      3              204096.31      1.1760107      12615.454      22248.192     -2893.3773      400.06299      770.82924      24750.364     -19691.455      5829.7392      747.8        
    748000   297.53775      38223.971      18677.301      56901.272     -535.80471     -595.46757     -425.94017     -586.00639      0.13941406    -0.041561963   -0.067353772    0.1496        -0.042450364   -0.069729327    0.13941406     22.522025      8.9447594      134.16487     -14.267619     -17.239679      24.154116      57.240154      50.019512      71.321774      3              204203.12      1.1753955      12666.405      22190.771     -2784.913       407.74488      680.63043      24757.062     -19693.728      5743.9645      748          
    748200   297.00104      38066.422      18643.61       56710.032     -286.19006      339.54446      674.92409     -1873.0387      0.13944885    -0.041351443   -0.067413135    0.14964       -0.042230739   -0.069792978    0.13944885    -9.290352       15.426363      156.08752      4.4145796     -17.508912     -2.3699661      57.252726      50.016329      71.324255      3              204242.08      1.1751713      12611.425      22237.142     -2960.9808      398.20256      676.10618      24799.319     -19694.792      5780.633       748.2        
    748400   297.23834      38267.139      18658.506      56925.646     -539.29177     -974.65451      592.01237     -1235.2332      0.13948364    -0.041210946   -0.067921137    0.14968       -0.042084193   -0.070337851    0.13948364     9.6202892     -6.2706885      138.03762     -16.611087     -14.716724     -8.4827779      57.261117      49.989084      71.326737      3              204167.85      1.1755986      12531.039      22360.396     -2829.2121      408.66025      733.16654      24757.839     -19694.75       5796.2563      748.4        
    748600   298.5379       38203.275      18740.084      56943.359      66.957694      193.91154      907.58523     -900.62368      0.13951843    -0.041627729   -0.069473095    0.14972       -0.042518984   -0.072004289    0.13951843    -8.5839356      16.375916      124.17696      0.52587755    -22.601339      16.083731      57.236226      49.905849      71.329219      3              203746.38      1.1780304      12595.524      22277.125     -2905.8498      397.40389      790.09752      24742.926     -19693.952      5839.072       748.6        
    748800   294.75814      38064.588      18502.817      56567.405     -413.72254      143.72028      396.40573     -1781.2936      0.13955322    -0.042060653   -0.071706853    0.14976       -0.042970815   -0.074407705    0.13955322    -1.7457221     -3.9587472      137.23244     -15.377527     -7.0778471     -2.2395878      57.210371      49.786049      71.3317        3              203172.53      1.1813577      12447.589      22150.26      -2727.7621      392.67927      757.20997      24735.775     -19691.163      5801.8214      748.8        
    749000   294.95411      37984.259      18515.119      56499.378     -593.69761      126.34921     -146.08354     -1761.3585      0.13958801    -0.041395696   -0.073847314    0.1498        -0.042276902   -0.07671617     0.13958801    -7.8543554     -19.253784      132.1915      -5.1717529     -10.087591     -5.1634239      57.250084      49.671252      71.334182      3              202851.82      1.1832254      12500.096      22168.714     -2742.3459      422.14361      632.66315      24697.141     -19694.153      5635.6512      749          
    749200   300.7472       38031.705      18878.768      56910.473     -205.54045      320.95221      429.17722     -1366.7508      0.1396228     -0.040245601   -0.075378195    0.14984       -0.041077862   -0.078370484    0.1396228      10.869105     -16.769622      141.58411      8.0782828     -7.2536712      0.05956693     57.31877       49.589148      71.336664      3              202766.55      1.1837231      12749.465      22178.941     -2918.5676      403.81806      593.51224      24713.809     -19689.273      5618.0483      749.2        
    749400   300.70821      38033.273      18876.32       56909.594      175.01905      70.99675       588.28696     -134.22655      0.13965759    -0.039126132   -0.074818052    0.14988       -0.03991213    -0.07776486     0.13965759    -12.064041     -32.628028      119.80612     -2.3193148     -28.857632     -11.62913       57.385627      49.61919       71.339145      3              203133.1       1.181587       12628.297      22109.804     -2841.5061      400.1179       669.27012      24757.181     -19689.89       5736.5609      749.4        
    749600   297.26112      38100.334      18659.936      56760.27      -521.769       -109.13926     -188.40483     -1267.7629      0.13969237    -0.037228943   -0.072855262    0.14992       -0.037939635   -0.075645589    0.13969237    -0.42758675     0.092740919    119.74378      8.5870407     -5.9721303      0.56958572     57.498932      49.724458      71.341627      3              203973.07      1.1767212      12696.543      22161.365     -2931.4551      404.59669      740.80586      24720.643     -19692.165      5769.2838      749.6        
    749800   300.04133      38279.206      18834.458      57113.663     -1139.0722     -350.88314     -1047.0283     -2019.3051      0.13972716    -0.037550992   -0.071956942    0.14996       -0.038274193   -0.074677149    0.13972716     45.035905      35.010328      146.13917     -3.653256      -22.003622      17.133243      57.479698      49.772636      71.344108      3              204109.51      1.1759346      12673.584      22297.98      -2803.0627      390.99109      692.37052      24721.212     -19693.869      5719.714       749.8        
    750000   295.66807      38266.699      18559.936      56826.635     -805.31906     -917.72724      260.44633     -1758.6763      0.13976194    -0.040461845   -0.072853181    0.15          -0.041303199   -0.075643345    0.13976194     0.82217149    -8.0241877      112.88391     -3.3832907     -24.221619     -0.017592345    57.305855      49.724569      71.34659       3              203302.75      1.1806011      12660.022      22191.674     -2769.1643      392.59524      804.78743      24677.963     -19691.179      5791.5718      750          
Loop time of 14470.5 on 16 procs for 750000 steps with 21060 atoms

Performance: 4.478 ns/day, 5.359 hours/ns, 51.830 timesteps/s, 1.092 Matom-step/s
98.8% CPU use with 16 MPI tasks x no OpenMP threads

MPI task timing breakdown:
Section |  min time  |  avg time  |  max time  |%varavg| %total
---------------------------------------------------------------
Pair    | 8491.7     | 8956.9     | 9490.4     | 281.2 | 61.90
Bond    | 1962       | 2074.8     | 2181.9     | 112.3 | 14.34
Kspace  | 1241.4     | 1838.7     | 2416.3     | 719.6 | 12.71
Neigh   | 853.92     | 854.26     | 854.67     |   1.0 |  5.90
Comm    | 220.16     | 224.54     | 229.11     |  19.8 |  1.55
Output  | 87.412     | 87.414     | 87.421     |   0.0 |  0.60
Modify  | 360.8      | 390.4      | 406.47     |  74.0 |  2.70
Other   |            | 43.5       |            |       |  0.30

Nlocal:        1316.25 ave        1368 max        1254 min
Histogram: 1 1 3 1 0 2 2 3 1 2
Nghost:        12930.1 ave       13043 max       12830 min
Histogram: 1 3 0 2 3 3 0 2 1 1
Neighs:         783359 ave      845628 max      728857 min
Histogram: 1 2 4 0 2 2 1 0 3 1

Total # of neighbors = 12533742
Ave neighs/atom = 595.14444
Ave special neighs/atom = 5.8019943
Neighbor list builds = 36307
Dangerous builds = 0

#-------------------Wrap up-------------------
write_restart  ${myid}.restart
write_restart  tensile_3_EPON_862_pxld_86.8_replicate_4_FF_PCFF.restart
System init for write_restart ...
PPPM initialization ...
  using 12-bit tables for long-range coulomb (../kspace.cpp:342)
  G vector (1/distance) = 0.17485775
  grid = 15 12 16
  stencil order = 5
  estimated absolute RMS force accuracy = 0.029756546
  estimated relative force accuracy = 8.9610954e-05
  using double precision KISS FFT
  3d grid and FFT values/proc = 1287 192
Generated 66 of 66 mixed pair_coeff terms from sixthpower/sixthpower mixing rule
write_data     ${myid}.data
write_data     tensile_3_EPON_862_pxld_86.8_replicate_4_FF_PCFF.data
System init for write_data ...
PPPM initialization ...
  using 12-bit tables for long-range coulomb (../kspace.cpp:342)
  G vector (1/distance) = 0.17485775
  grid = 15 12 16
  stencil order = 5
  estimated absolute RMS force accuracy = 0.029756546
  estimated relative force accuracy = 8.9610954e-05
  using double precision KISS FFT
  3d grid and FFT values/proc = 1287 192
Generated 66 of 66 mixed pair_coeff terms from sixthpower/sixthpower mixing rule
Total wall time: 4:01:11
