thermo_style   custom step temp pe ke etotal press pxx pyy pzz v_etrue v_eengx v_eengy v_eengz v_etruex v_etruey v_etruez                f_sxx_ave f_syy_ave f_szz_ave f_sxy_ave f_sxz_ave f_syz_ave lx ly lz v_dir vol density ebond eangle edihed                eimp evdwl ecoul elong epair v_Time

restart        ${nsteps} rst1.a.${myid} rst2.a.${myid}
restart        200 rst1.a.${myid} rst2.a.${myid}
restart        200 rst1.a.tensile_2_EPON_862_pxld_86.8_replicate_4_FF_PCFF rst2.a.${myid}
restart        200 rst1.a.tensile_2_EPON_862_pxld_86.8_replicate_4_FF_PCFF rst2.a.tensile_2_EPON_862_pxld_86.8_replicate_4_FF_PCFF
dump           6 all atom 10000 dump.${myid} #every picosecond
dump           6 all atom 10000 dump.tensile_2_EPON_862_pxld_86.8_replicate_4_FF_PCFF 
dump_modify    6 scale no sort id

#-------------------Run-------------------
run            ${steps}
run            750000

CITE-CITE-CITE-CITE-CITE-CITE-CITE-CITE-CITE-CITE-CITE-CITE-CITE

Your simulation uses code contributions which should be cited:

- Type Label Framework: https://doi.org/10.1021/acs.jpcb.3c08419

@Article{Gissinger24,
 author = {Jacob R. Gissinger, Ilia Nikiforov, Yaser Afshar, Brendon Waters, Moon-ki Choi, Daniel S. Karls, Alexander Stukowski, Wonpil Im, Hendrik Heinz, Axel Kohlmeyer, and Ellad B. Tadmor},
 title = {Type Label Framework for Bonded Force Fields in LAMMPS},
 journal = {J. Phys. Chem. B},
 year =    2024,
 volume =  128,
 number =  13,
 pages =   {3282–-3297}
}

CITE-CITE-CITE-CITE-CITE-CITE-CITE-CITE-CITE-CITE-CITE-CITE-CITE

PPPM initialization ...
  using 12-bit tables for long-range coulomb (../kspace.cpp:342)
  G vector (1/distance) = 0.17970628
  grid = 15 15 15
  stencil order = 5
  estimated absolute RMS force accuracy = 0.023498084
  estimated relative force accuracy = 7.0763783e-05
  using double precision KISS FFT
  3d grid and FFT values/proc = 1521 256
Generated 66 of 66 mixed pair_coeff terms from sixthpower/sixthpower mixing rule
Neighbor list info ...
  update: every = 1 steps, delay = 0 steps, check = yes
  max neighbors/atom: 5000, page size: 100000
  master list distance cutoff = 14
  ghost atom cutoff = 14
  binsize = 7, bins = 9 8 9
  1 neighbor lists, perpetual/occasional/extra = 1 0 0
  (1) pair lj/class2/coul/long, perpetual
      attributes: half, newton on
      pair build: half/bin/newton
      stencil: half/bin/3d
      bin: standard
WARNING: Inconsistent image flags (../domain.cpp:1051)
Per MPI rank memory allocation (min/avg/max) = 19.44 | 19.45 | 19.45 Mbytes
   Step          Temp          PotEng         KinEng         TotEng         Press           Pxx            Pyy            Pzz          v_etrue        v_eengx        v_eengy        v_eengz        v_etruex       v_etruey       v_etruez      f_sxx_ave      f_syy_ave      f_szz_ave      f_sxy_ave      f_sxz_ave      f_syz_ave          Lx             Ly             Lz           v_dir          Volume        Density         E_bond        E_angle        E_dihed        E_impro         E_vdwl         E_coul         E_long         E_pair         v_Time    
         0   298            37550.924      18706.318      56257.242     -694.12392     -174.42268     -842.92193     -1065.0271      0              2.3794876e-16 -7.9491179e-16 -1.1452883e-16  2.220446e-16  -7.7715612e-16 -1.110223e-16   0              0              0              0              0              0              59.722331      53.631818      62.040513      2              198716.83      1.2078466      12487.735      22057.782     -2673.4442      390.01866      285.18513      24694.364     -19690.715      5288.8336      0            
       200   299.07804      37859.715      18773.989      56633.704     -650.59022      71.693403     -926.74499     -1096.7191      3.99992e-05    0.00069046517  4e-05         -0.00062333189  0.00069022691  3.99992e-05   -0.00062352625 -4.5149272     -15.33535       14.66582       16.471555     -12.981671      17.868019      59.763567      53.633963      62.001841      2              198738.03      1.2077177      12671.426      22197.263     -2663.442       393.4317       267.79628      24684.631     -19691.391      5261.0363      0.2          
       400   297.97681      37894.711      18704.862      56599.573      143.39377      512.54901      197.92611     -280.2938       7.99968e-05    0.0008593874   8e-05         -0.0029824796   0.00085901833  7.99968e-05   -0.002986936   -2.7097052     -19.983759      6.9597953      2.3765352     -17.19206      -0.69414185     59.773656      53.636108      61.855478      2              198310.29      1.2103227      12691.065      22225.862     -2820.0331      396.01346      364.04268      24728.152     -19690.391      5401.8038      0.4          
       600   294.2836       37800.697      18473.029      56273.726     -41.892381     -116.03367     -271.72441      262.08094      0.0001199928   0.00097581564  0.00012       -0.0051912432   0.00097533984  0.0001199928  -0.0052047645   11.489679     -10.922971     -12.312119      6.6328692     -28.998341      2.0266803      59.780609      53.638253      61.718446      2              197901.89      1.2128203      12594.389      22160.835     -2631.775       402.35831      271.40712      24693.504     -19690.022      5274.8895      0.6          
       800   296.55353      37996.196      18615.519      56611.714      593.75586      256.4636       538.37074      986.43325      0.0001599872   0.00073011735  0.00016       -0.005512032    0.00072985094  0.0001599872  -0.0055272793  -3.2057958     -18.881333     -26.574737      12.03008      -16.110889     -2.1656067      59.765935      53.640399      61.698544      2              197797.42      1.2134609      12441.457      22277.622     -2573.3288      403.34379      394.6695       24744.395     -19691.963      5447.1017      0.8          
      1000   296.58685      37986.494      18617.611      56604.105     -331.49468     -262.22853      35.177082     -767.43258      0.00019998     0.0010646679   0.0002        -0.003498672    0.0010641015   0.00019998    -0.0035048066   0.23212331     8.186224      -9.8310886      2.728482      -25.72635      -0.67569267     59.785915      53.642544      61.823454      2              198272.06      1.2105561      12513.512      22197.964     -2560.8764      417.94115      405.02867      24705.523     -19692.598      5417.9536      1            
      1200   297.44831      37664.238      18671.686      56335.924      107.48628      716.68251     -722.19967      327.976        0.0002399712   0.0005151642   0.00024       -0.0012675998   0.00051503155  0.0002399712  -0.0012684039   10.268228      8.6737705      13.815525      8.2273182     -17.997968     -2.7354697      59.753098      53.644689      61.961871      2              198614.83      1.2084668      12550.77       22129.793     -2721.1899      412.17475      326.07596      24658.354     -19691.74       5292.6893      1.2          
      1400   297.37665      37862.199      18667.189      56529.388     -284.85111     -125.2063      -57.775545     -671.57148      0.00027996081 -0.00075690913  0.00028       -0.0009769571  -0.00075719573  0.00027996081 -0.00097743464  2.3940626      28.887982      14.166501      6.3737458     -23.135476      4.4827407      59.677127      53.646835      61.979902      2              198427.97      1.2096049      12597.82       22283.655     -2722.881       424.39682      330.74961      24643.121     -19694.662      5279.2087      1.4          
      1600   298.24601      37894.325      18721.76       56616.086     -873.88663     -883.77365     -1007.2081     -730.67818      0.00031994881 -0.0019701453   0.00032       -0.0010855904  -0.0019720886   0.00031994881 -0.0010861801   7.0820395     -4.8977618     -0.11566328     10.845262     -14.252937      8.0623622      59.604669      53.64898       61.973162      2              198173.42      1.2111586      12617.907      22034.739     -2515.8844      408.16055      323.92893      24717.209     -19691.735      5349.4032      1.6          
      1800   295.19936      37783.079      18530.514      56313.592      325.6826       608.98192      764.10396     -396.03807      0.00035993522 -0.0026829143   0.00036        0.00036950924 -0.0026865197   0.00035993522  0.00036944099 -15.909468     -2.2682919     -25.921804     -5.8198877     -19.30661       13.896871      59.562101      53.651125      62.063438      2              198328.29      1.2102128      12612.215      22152.161     -2676.898       392.51777      294.80944      24702.278     -19694.005      5303.0826      1.8          
      2000   297.8679       37968.747      18698.026      56666.773      364.72618      472.51674      125.62983      496.03196      0.00039992002 -0.0024473397   0.0004         0.0016053682  -0.0024503393   0.00039992002  0.001604081   -19.518792      8.2995887      16.674425     -12.981544     -17.589093      1.2413343      59.57617       53.65327       62.140111      2              198628.15      1.2083858      12643.317      22041.17      -2603.6286      408.47107      406.72115      24763.529     -19690.833      5479.4173      2            
      2200   298.517        37808.23       18738.771      56547.002     -758.77793     -1373.3142     -454.55146     -448.46814      0.00043990323 -0.0015986917   0.00044        0.0013944518  -0.001599971    0.00043990323  0.0013934805   17.007278      23.149242      30.687711      0.42373733    -16.44208       9.3271656      59.626853      53.655416      62.127026      2              198763.22      1.2075647      12670.756      21965.533     -2609.9729      418.09772      323.83646      24728.959     -19688.979      5363.8164      2.2          
      2400   298.32571      37678.926      18726.763      56405.689      674.02531      1140.5345     -785.90238      1667.4438      0.00047988484 -0.00074859504  0.00048        0.00037072606 -0.00074887538  0.00047988484  0.00037065736 -15.083658      12.486376     -26.088067      1.2817846     -26.381441     -2.1444125      59.677623      53.657561      62.063513      2              198737.03      1.2077238      12548.368      22128.801     -2743.9637      414.755        302.45451      24719.865     -19691.353      5330.9657      2.4          
      2600   300.95032      37873.864      18891.518      56765.382     -320.28246     -574.369        71.087491     -457.56586      0.00051986485  0.00077348741  0.00052       -0.0004997166   0.00077318842  0.00051986485 -0.0004998415   12.540768      5.1489933      22.704716      5.9713935     -22.215544      19.244776      59.768525      53.659706      62.00951       2              198874.52      1.2068889      12686.857      22047.101     -2634.0712      412.16227      325.48569      24731.883     -19695.553      5361.8157      2.6          
      2800   301.29953      37705.776      18913.439      56619.215      121.61669     -64.134274      359.02061      69.963743      0.00055984326  0.001776046    0.00056       -0.0022919292   0.0017744707   0.00055984326 -0.0022945597   0.47243516     1.4898469     -10.878396      1.1869404     -12.830709      11.372485      59.828401      53.661851      61.898321      2              198724.73      1.2077986      12464.735      22114.036     -2628.8907      390.728        406.70999      24653.462     -19695.005      5365.1677      2.8          
      3000   296.85096      37859.573      18634.189      56493.762     -420.10625      109.86564     -1144.1943     -225.99008      0.00059982007  0.003686515    0.0006        -0.0033118909   0.0036797365   0.00059982007 -0.0033173874  -7.5630744      14.298023     -26.603603      5.123588      -14.226963     -0.94288167     59.942498      53.663997      61.835042      2              198908.12      1.206685       12502.126      22167.384     -2549.5426      400.73919      320.96091      24709.782     -19691.876      5338.8664      3            
      3200   299.57517      37985.967      18805.196      56791.163      280.71246     -195.88156      707.45827      330.56068      0.00063979529  0.0052634078   0.00064       -0.0027730979   0.0052496045   0.00063979529 -0.00277695     5.0703707      14.482553      1.2281215      9.0160045     -7.6837762      0.23721438     60.036674      53.666142      61.868469      2              199336.29      1.2040931      12767.562      22040.541     -2724.3756      417.00429      457.42552      24721.966     -19694.157      5485.2347      3.2          
      3400   299.05364      37860.718      18772.458      56633.176      281.21146     -326.68275      204.904        965.41313      0.0006797689   0.005764321    0.00068       -0.0024204167   0.0057477708   0.0006797689  -0.0024233507   46.614313      23.081335      9.3446344      11.434051     -9.6850666      2.2379839      60.06659       53.668287      61.890349      2              199514.12      1.2030198      12601.728      22155.079     -2623.62        415.32423      299.9018       24708.66      -19696.354      5312.2078      3.4          
      3600   296.99812      37862.028      18643.427      56505.455      351.5846      -25.256209      1444.8693     -364.85925      0.00071974092  0.001960064    0.00072       -0.0023146575   0.0019581456   0.00071974092 -0.0023173405   5.2892192      18.09177      -6.1254692      3.3697657     -19.93787      -7.1991886      59.839391      53.670433      61.896911      2              198788.49      1.2074112      12586.203      22129.307     -2732.5059      395.88105      480.15934      24697.135     -19694.151      5483.1427      3.6          
      3800   297.67516      37756.749      18685.926      56442.676     -397.27862     -556.4261      -581.44814     -53.961629      0.00075971135 -0.00080817727  0.00076       -0.0018929275  -0.00080850402  0.00075971135 -0.0018947213  -9.8604553     -0.79807226    -24.201263     -2.6009457     -11.292955      12.600343      59.674065      53.672578      61.923075      2              198330.99      1.2101963      12660.8        22042.035     -2760.8085      406.3699       437.1237       24664.23      -19693          5408.3534      3.8          
      4000   296.46304      37723.916      18609.838      56333.755      751.7801       678.39349      402.62004      1174.3268      0.00079968017 -0.0024242011   0.0008         0.00023558445 -0.0024271443   0.00079968017  0.0002355567  -18.266123     -8.2249749     -1.2003542     -12.213299     -25.246877     -2.6051778      59.577552      53.674723      62.055129      2              198440.43      1.209529       12550.109      22047.695     -2658.4432      407.49661      390.30641      24678.633     -19691.881      5377.0581      4            
      4200   300.47407      37788.841      18861.623      56650.464     -1.5701882     -170.16738     -210.40857      375.86538      0.0008396474  -0.0029684836   0.00084        0.0019579748  -0.0029728983   0.0008396474   0.0019560605   10.828376      5.61388        6.7327712      16.88556      -21.767782     -8.2461656      59.545046      53.676868      62.161987      2              198681.62      1.2080606      12532.545      22061.088     -2586.3124      414.82208      320.49097      24732.979     -19686.771      5366.6991      4.2          
      4400   296.14315      37940.984      18589.758      56530.742     -960.08779     -1316.0806     -450.12326     -1114.0595      0.00087961303 -0.0029172375   0.00088        0.0024787661  -0.002921501    0.00087961303  0.0024756991  -23.801342      8.0692369      7.2229064      1.5242049     -13.415857      3.3558506      59.548107      53.679014      62.194297      2              198803.05      1.2073227      12686.405      22076.516     -2652.9085      406.71407      377.00383      24734.877     -19687.623      5424.2579      4.4          
      4600   294.02059      37766.549      18456.519      56223.068      292.52564     -875.10987      568.74755      1183.9392      0.00091957706 -0.0021139024   0.00092        0.0012629779  -0.0021161399   0.00091957706  0.001262181   -9.5070508      25.198127      23.060696      1.8282548     -22.8849        10.627697      59.596084      53.681159      62.118869      2              198729.87      1.2077673      12630.173      22101.199     -2748.1034      392.94021      325.22607      24754.351     -19689.236      5390.3405      4.6          
      4800   296.73426      37962.009      18626.864      56588.873     -281.78036     -94.714        -1236.5968      485.96976      0.00095953949 -0.0010335609   0.00096       -0.00037114495 -0.0010340954   0.00095953949 -0.00037121384  6.1343047      19.094486      6.0163694     -5.6593236     -23.210163     -2.1818474      59.660604      53.683304      62.017487      2              198628.27      1.2083851      12685.741      22142.454     -2635.167       422.74624      322.43294      24715.131     -19691.329      5346.2346      4.8          
      5000   297.98296      37815.155      18705.248      56520.403      23.543414      145.7173      -111.51909      36.43204       0.00099950033  0.00060985759  0.001         -0.001354675    0.0006096717   0.00099950033 -0.0013555934  -8.8447363     -7.4942528     -14.024469      13.297123     -6.3116681      13.780099      59.758753      53.685449      61.956468      2              198767.23      1.2075403      12515.18       22135.016     -2599.3244      393.85809      364.54055      24695.89      -19690.005      5370.4258      5            
      5200   295.52164      37664.502      18550.744      56215.246     -170.20726     -774.83097     -19.865538      284.07473      0.0010394596   0.0015689119   0.00104       -0.0017722034   0.0015676825   0.0010394596  -0.0017737756   21.808174     -19.367783      4.4350129     -7.2413879     -11.909532      13.706579      59.81603       53.687595      61.930565      2              198882.5       1.2068404      12333.83       22075.227     -2602.9905      410.72787      442.22203      24696.74      -19691.255      5447.7072      5.2          
      5400   299.1426       37856.278      18778.042      56634.321     -66.686524      756.27313     -697.34101     -258.9917       0.0010794172   0.00074008084  0.00108       -0.0022712581   0.00073980712  0.0010794172  -0.0022738413   4.7492514     -11.925498      1.6134853     -7.7129812     -13.899169     -12.684108      59.76653       53.68974       61.899603      2              198626.51      1.2083958      12639.75       22058.317     -2639.3983      390.52059      376.14032      24723.59      -19692.641      5407.0888      5.4          
      5600   295.87585      37883.139      18572.979      56456.118     -560.81856     -311.42545     -1045.9773     -325.05292      0.0011193733  -0.00028490665  0.00112       -0.0037606111  -0.00028494724  0.0011193733  -0.0037677     -0.98687252     42.635768      15.956384      9.8908297     -18.785826      1.2594674      59.705316      53.691885      61.807203      2              198134.79      1.2113947      12538.531      22157.644     -2577.6289      396.7734       349.43259      24709.959     -19691.572      5367.8195      5.6          
      5800   297.19738      37807.012      18655.935      56462.947     -603.50649     -668.94525     -1253.8517      112.2775       0.0011593277  -3.3271541e-05  0.00116       -0.0039912781  -3.3272095e-05  0.0011593277  -0.0039992646  -14.774531      17.528472     -28.329355     -4.9387638     -5.5519622     -5.8687394      59.720344      53.694031      61.792892      2              198146.69      1.211322       12668.147      22070.928     -2627.985       380.86463      271.50872      24733.739     -19690.191      5315.0574      5.8          
      6000   298.69121      37870.53       18749.707      56620.237      45.51004       391.65884     -865.71489      610.58617      0.0011992806   0.00057857237  0.0012        -0.002131033    0.00057840507  0.0011992806  -0.0021333069  -4.2457591      6.5595497     -17.092404     -0.4713064     -14.655183     -3.6619909      59.756885      53.696176      61.908303      2              198646.17      1.2082762      12608.622      22048.229     -2603.6445      408.24396      355.25056      24744.87      -19691.041      5409.0799      6            
      6200   300.09105      37630.788      18837.579      56468.367     -435.36467     -388.06246     -779.18802     -138.84354      0.0012392318   0.0020816806   0.00124       -0.00045913502  0.0020795169   0.0012392318  -0.00045924046 -14.862951      2.2905397     -4.6143786     -11.941873     -17.289079      17.419419      59.846654      53.698321      62.012028      2              199285.87      1.2043977      12398.978      22079.278     -2639.8585      398.16301      351.38465      24732.283     -19689.441      5394.2269      6.2          
      6400   299.65782      37736.612      18810.384      56546.996      63.316412      186.48465     -140.57746      144.04205      0.0012791815   0.0019808522   0.00128       -0.0012716817   0.0019788929   0.0012791815  -0.001272491    33.958122      28.798956      30.104219     -3.6819548     -16.128628      9.9881104      59.840632      53.700466      61.961617      2              199111.79      1.2054507      12617.118      21915.755     -2571.293       390.70413      375.08424      24699.109     -19689.866      5384.3279      6.4          
      6600   298.81513      37965.36       18757.486      56722.847     -1146.7335     -955.2116      -1113.5636     -1371.4254      0.0013191296   0.00094649021  0.00132       -0.00217715     0.00094604257  0.0013191296  -0.0021795235   9.6129683      13.824775      5.4498281     -1.4834992     -0.40046834     6.2098451      59.778858      53.702612      61.905442      2              198733.85      1.2077431      12712.548      22258.743     -2667.4163      413.55062      233.28986      24704.691     -19690.047      5247.9343      6.6          
      6800   296.92966      37714.514      18639.129      56353.643      23.532593     -34.717897      384.9416      -279.62592      0.001359076   -2.4093983e-05  0.00136       -0.0022465587  -2.4094273e-05  0.001359076   -0.002249086   -5.3862308      23.132749     -8.1253284      13.677694     -21.988181      2.4636625      59.720892      53.704757      61.901135      2              198535.26      1.2089512      12499.169      22089.886     -2707.5552      403.27154      445.52273      24674.02      -19689.8        5429.7425      6.8          
      7000   296.98242      37880.412      18642.441      56522.854      450.87542      1152.4912     -846.43311      1046.5681      0.0013990209   0.0004092357   0.0014        -0.0017371928   0.00040915199  0.0013990209  -0.0017387035  -28.230088     -12.262013     -14.598343      3.5756984     -29.419746      6.977594       59.746772      53.706902      61.932737      2              198730.63      1.2077627      12624.46       22108.125     -2643.6968      398.07231      350.59847      24735.119     -19692.266      5393.4519      7            
      7200   298.37998      37871.911      18730.17       56602.082     -844.416       -1117.9824     -1126.8555     -288.41006      0.0014389642   0.0024350227   0.00144       -0.0015742538   0.0024320628   0.0014389642  -0.0015754942  -2.6618378      28.469541      19.751174     -5.4725513     -25.26526      -4.2145082      59.867756      53.709047      61.942846      2              199173.51      1.2050771      12775.972      22093.054     -2651.062       411.72225      266.68833      24667.031     -19691.494      5242.2251      7.2          
      7400   297.97791      37723.678      18704.931      56428.609     -16.466748     -115.56724     -854.94772      921.11471      0.0014789059   0.0026927354   0.00148       -0.0028889608   0.0026891165   0.0014789059  -0.0028931419   16.941485      30.062704      2.6250609     -22.061504     -11.482313      5.0282999      59.883147      53.711193      61.86128       2              198970.33      1.2063077      12582.433      22076.061     -2695.1346      386.07293      333.00015      24730.667     -19689.421      5374.2461      7.4          
      7600   296.7239       37847.427      18626.214      56473.64       387.61892      286.1877       289.10049      587.56858      0.001518846    0.0021814384   0.00152       -0.0037208242   0.0021790625   0.001518846   -0.0037277637  -4.0161285      14.09221      -5.7884616     -18.389202     -26.162239      12.004035      59.852612      53.713338      61.809671      2              198710.9       1.2078826      12730.544      22040.724     -2790.4273      388.7401       422.04108      24744.553     -19688.748      5477.8457      7.6          
      7800   299.60024      37869.101      18806.77       56675.871      680.32028      1387.1392      118.6243       535.19737      0.0015587845   0.0020875307   0.00156       -0.0042624457   0.0020853548   0.0015587845  -0.0042715559  -4.5839741     -14.442328      14.038354      9.9912397     -17.076934      9.257845       59.847003      53.715483      61.776069      2              198592.19      1.2086046      12560.074      22115.584     -2660.1907      403.60326      461.71029      24682.231     -19693.911      5450.0308      7.8          
      8000   296.17432      37663.758      18591.715      56255.473     -753.86537     -665.97616     -1419.9715     -175.6484       0.0015987214   0.0021728931   0.0016        -0.0056065179   0.0021705358   0.0015987214  -0.0056222934   3.2616394      20.100726      2.5740428     -4.3778468     -30.290147     -11.862076      59.852101      53.717629      61.692682      2              198348.94      1.2100868      12491.599      22059.354     -2592.5386      376.20297      311.68269      24711.536     -19694.078      5329.1407      8            
      8200   296.94488      37829.106      18640.085      56469.191     -155.18343     -592.17661      904.3537      -777.72738      0.0016386567   0.0014506457   0.00164       -0.0064005464   0.0014495945   0.0016386567  -0.0064211177   11.732991      8.0593879     -21.598269      3.3678149     -6.4123045     -5.1629593      59.808967      53.719774      61.64342       2              198055.63      1.2118789      12546.367      22088.677     -2632.2186      390.1077       441.30795      24690.801     -19695.936      5436.1725      8.2          
      8400   297.78159      37899.032      18692.607      56591.639     -502.72393     -855.76551     -489.61608     -162.7902       0.0016785904   0.0010281814   0.00168       -0.0045353727   0.0010276531   0.0016785904  -0.0045456887   3.3647857      20.487735     -17.946128      0.90772359    -14.004788      6.5650316      59.783736      53.721919      61.759136      2              198351.64      1.2100704      12689.34       22281.561     -2623.1036      405.27695      150.05194      24689.229     -19693.324      5145.9569      8.4          
      8600   296.5684       37646.427      18616.452      56262.879     -417.2294       82.04756      -840.23545     -493.50032      0.0017185225   0.00044258296  0.00172       -0.0022787985   0.00044248505  0.0017185225  -0.0022813989  -10.025168      7.5151947     -14.315674     -3.471395      -3.2125431     -1.9340253      59.748763      53.724064      61.899135      2              198692.91      1.207992       12590.458      22021.312     -2666.7501      389.8329       261.24121      24742.997     -19692.664      5311.5734      8.6          
      8800   299.91878      37710.4        18826.765      56537.165      116.43769      722.55379     -780.70899      407.46825      0.001758453   -0.00014374664  0.00176       -0.0011780486  -0.00014375697  0.001758453   -0.001178743   -1.2986258      37.246627      38.675618      12.303129     -22.09661       0.11312281     59.713746      53.72621       61.967426      2              198803.48      1.2073201      12471.781      22157.998     -2709.0196      386.68298      351.37309      24744.776     -19693.192      5402.9571      8.8          
      9000   299.98281      37736.028      18830.785      56566.813      938.45514      439.37069      357.38355      2018.6112      0.0017983819   0.00015531441  0.0018        -0.0034929122   0.00015530235  0.0017983819  -0.0034990267  -5.4072491      17.024325      28.975947      12.171685     -12.038674     -9.8010981      59.731607      53.728355      61.823811      2              198409.98      1.2097146      12496.046      22187.229     -2699.4008      403.85653      334.25517      24708.095     -19694.052      5348.2977      9            
      9200   294.44071      37755.261      18482.891      56238.152      170.88773      143.47033     -236.22273      605.41559      0.0018383093   0.00047859317  0.00184       -0.0046258294   0.00047847868  0.0018383093  -0.0046365617  -0.92613001     20.940631     -21.867342     -2.3113403     -4.6144442      16.385635      59.750914      53.7305        61.753524      2              198256.38      1.2106518      12563.894      22090.076     -2652.9735      412.93256      329.45383      24706.915     -19695.038      5341.3313      9.2          
      9400   297.21594      37895.148      18657.1        56552.249      810.46621      748.24022      1216.2102      466.94824      0.001878235    0.00051350726  0.00188       -0.0038754458   0.00051337546  0.001878235   -0.0038829748  -6.4670275     -9.5183308     -33.433569      1.8290119     -14.293298      13.645383      59.752999      53.732645      61.800078      2              198420.69      1.2096493      12538.763      22291.184     -2719.659       399.8375       383.03636      24694.541     -19692.553      5385.0236      9.4          
      9600   296.19029      38036.913      18592.717      56629.63       77.483603     -252.41377     -131.33327      616.19785      0.0019181592   0.0013763773   0.00192       -0.0018856931   0.001375431    0.0019181592  -0.0018874732   13.16905       17.979733     -3.6619904      6.8599315     -21.53814      -9.3689526      59.804531      53.734791      61.923524      2              198996.44      1.2061494      12719.198      22056.253     -2612.8005      418.92223      425.4017       24724.625     -19694.686      5455.3408      9.6          
      9800   297.22254      37783.714      18657.515      56441.229     -11.506274      433.09276     -604.07031      136.45873      0.0019580817   0.0011898851   0.00196       -0.001208393    0.0011891777   0.0019580817  -0.0012091236  -1.5794105      33.099933      22.218374      10.472528     -16.252572      11.311681      59.793394      53.736936      61.965544      2              199102.34      1.2055079      12531.213      21980.109     -2545.2979      408.72123      354.4324       24745.457     -19690.92       5408.9694      9.8          
     10000   298.54758      37888.265      18740.691      56628.956     -671.16574     -1331.6983     -595.66652     -86.132394      0.0019980027   0.00085890504  0.002         -0.0021039778   0.00085853639  0.0019980027  -0.0021061943   14.332501      16.138764      9.2276503      8.5861214     -3.2281494      10.514219      59.773627      53.739081      61.909981      2              198865.99      1.2069406      12518.6        22215.298     -2571.5128      404.37095      244.26346      24765.166     -19687.921      5321.5088      10           
     10200   298.26931      37974.267      18723.223      56697.49      -356.19518     -104.36409     -532.50179     -431.71967      0.002037922   -0.00025010244  0.00204       -0.0028441634  -0.00025013372  0.002037922   -0.0028482157  -11.434258      1.370682       0.117446      -14.088919     -13.372019      13.678455      59.707394      53.741227      61.86406       2              198506.22      1.2091281      12747.945      22056.195     -2544.145       403.35281      316.02162      24686.679     -19691.782      5310.9186      10.2         
     10400   297.01034      37819.549      18644.194      56463.743     -669.07344     -1426.8138      757.29861     -1337.7051      0.0020778398  -0.00039524369  0.00208       -0.0029845926  -0.00039532182  0.0020778398  -0.0029890554  -2.8715687      7.0318558     -9.9646879      7.8383126     -11.450416      4.7761044      59.698726      53.743372      61.855347      2              198457.37      1.2094257      12584.824      22188.066     -2630.7         394.44943      243.55579      24729.255     -19689.9        5282.9099      10.4         
     10600   297.89084      37861.209      18699.466      56560.674     -533.25985     -420.20723     -270.6093      -908.96303      0.002117756   -0.0012147883   0.00212       -0.0035004731  -0.0012155268   0.002117756   -0.0035066141   5.7575887      14.667168      6.5463403      3.9843849     -25.568529      7.7892019      59.649781      53.745517      61.823342      2              198199.97      1.2109964      12464.543      22310.932     -2633.1516      406.41127      314.30511      24688.389     -19690.22       5312.4745      10.6         
     10800   298.18021      37711.954      18717.63       56429.584     -687.01786     -654.41814      38.690591     -1445.326       0.0021576706  -0.00056146103  0.00216       -0.0038295433  -0.00056161871  0.0021576706  -0.0038368947  -14.696629      15.783873      4.3198173     -13.594197     -11.705048      9.4058399      59.688799      53.747662      61.802926      2              198272.03      1.2105562      12500.586      22205.234     -2718.5716      404.17648      337.79041      24670.53      -19687.792      5320.5285      10.8         
     11000   298.24654      37657.696      18721.794      56379.489      183.60315      1635.6959     -97.778763     -987.10774      0.0021975835   0.00019429005  0.0022        -0.0039435282   0.00019427118  0.0021975835  -0.0039513244  -7.9711458      2.3596785     -11.346535      7.7382035     -13.742987      2.3049178      59.733934      53.749808      61.795855      2              198407.18      1.2097316      12377.135      22057.193     -2606.9112      403.57366      425.6554       24693.961     -19692.911      5426.7054      11           
     11200   300.15066      37892.85       18841.321      56734.171     -549.13203      184.34713     -213.6021      -1618.1411      0.0022374949   0.0013913736   0.00224       -0.003268929    0.0013904066   0.0022374949  -0.0032742837   21.352337      15.634529      15.400343     -2.3316561     -22.285357      11.944884      59.805427      53.751953      61.837707      2              198787.11      1.2074195      12541.833      22268.598     -2638.6787      388.07349      315.31332      24707.768     -19690.057      5333.024       11.2         
     11400   299.62803      37689.45       18808.514      56497.963      406.12595      556.38867     -354.81302      1016.8022      0.0022774047   0.00093622037  0.00228       -0.0041599677   0.00093578239  0.0022774047  -0.0041686444   8.8929023      18.300803      3.3734853     -11.789564     -26.942279      16.520281      59.778244      53.754098      61.782427      2              198527.05      1.2090012      12731.816      22209.916     -2904.6758      402.10307      247.45011      24694.695     -19691.855      5250.2905      11.4         
     11600   298.62235      37694.985      18745.385      56440.37       1076.2912      1227.7232      567.51668      1433.6337      0.002317313    0.0011129055   0.00232       -0.0054767647   0.0011122867   0.002317313   -0.0054918172  -13.157042      6.2280968     -7.9947198     -9.4889604     -11.775667      2.8872487      59.788796      53.756243      61.700732      2              198307.45      1.21034        12544.559      22078.415     -2727.5197      397.81826      421.38066      24670.308     -19689.976      5401.7131      11.6         
     11800   295.61375      38038.042      18556.526      56594.568      418.10494     -505.09231      1447.7725      311.63468      0.0023572196   0.0027272139   0.00236       -0.0049585137   0.0027235018   0.0023572196  -0.0049708479  -26.398478     -17.422315     -10.13867       2.9868486     -5.8448182      11.361055      59.885207      53.758389      61.732884      2              198738.66      1.2077139      12649.586      22204.582     -2503.2983      401.67952      314.54072      24663.001     -19692.049      5285.4923      11.8         
     12000   297.90825      38068.299      18700.558      56768.858     -800.64694     -1135.5873     -183.6309      -1082.7226      0.0023971246   0.0052080572   0.0024        -0.0046092936   0.0051945422   0.0023971246  -0.0046199491  -1.6033542      28.838874     -0.41170472     14.95866      -19.75117       16.207943      60.033368      53.760534      61.75455       2              199308.24      1.2042625      12566.066      22271.987     -2602.2208      398.62322      446.3781       24678.091     -19690.624      5433.8445      12           
     12200   297.97565      37794.137      18704.789      56498.926      132.17518     -159.38542      94.517235      461.39373      0.002437028    0.0063518513   0.00244       -0.0045158706   0.0063317633   0.002437028   -0.004526098    46.309257      27.024128      13.492354      0.53089316    -22.446865      18.510713      60.101678      53.762679      61.760346      2              199561.71      1.2027329      12675.604      22043.684     -2714.1016      394.84849      386.51012      24697.249     -19689.657      5394.1021      12.2         
     12400   297.65662      37878.244      18684.763      56563.007     -390.98958      368.02397     -866.16461     -674.8281       0.0024769299   0.0038492899   0.00248       -0.0043383712   0.0038419003   0.0024769299  -0.0043478093   18.737154      28.173156     -0.7333267     -9.9892924     -9.3305451      5.7458022      59.95222       53.764825      61.771358      2              199108.89      1.2054682      12501.914      22235.263     -2631.53        402.77411      344.28408      24715.29      -19689.752      5369.8224      12.4         
     12600   297.76469      38029.066      18691.547      56720.613      590.37036     -387.15317      1363.4236      794.84069      0.0025168301   0.00047861162  0.00252       -0.0048852725   0.00047849713  0.0025168301  -0.0048972444  -3.8545696      15.266977     -3.944915       6.5686279     -18.06054      -3.7986872      59.750915      53.76697       61.737428      2              198339.24      1.210146       12778.299      22325.182     -2866.8114      405.93201      341.78254      24733.994     -19689.312      5386.4647      12.6         
     12800   297.72741      37685.154      18689.207      56374.361     -134.28716     -1155.3879      788.92004     -36.393649      0.0025567288  -0.0011148889   0.00256       -0.0044871053  -0.0011155109   0.0025567288  -0.0044972026  -22.49923      -2.1576249     -13.277762      1.202506      -18.343889      7.7330394      59.655747      53.769115      61.762131      2              198110.48      1.2115434      12446.159      22164.991     -2754.3491      406.25712      392.13317      24720.622     -19690.659      5422.0959      12.8         
     13000   297.84625      37863.641      18696.666      56560.307     -418.55607     -836.47287     -110.01469     -309.18064      0.0025966258  -0.0010400605   0.0026        -0.0046426787  -0.0010406018   0.0025966258  -0.0046534894   3.2836198     -16.312679      8.5944754     -0.094922553   -23.871859     -1.2834521      59.660216      53.77126       61.752479      2              198102.26      1.2115936      12433.463      22233.565     -2536.4105      404.99767      285.50774      24730.351     -19687.834      5328.0252      13           
     13200   300.51895      37994.788      18864.44       56859.227     -400.77802     -411.29958     -208.91104     -582.12345      0.0026365213  -0.0008685158   0.00264       -0.0044513055  -0.00086889318  0.0026365213  -0.0044612421  -7.2551272     -2.2144283      6.5401217     -19.606446     -21.498877      8.0051926      59.670461      53.773406      61.764352      2              198182.28      1.2111044      12635.734      22322.651     -2724.6921      409.05832      306.09419      24737.301     -19691.359      5352.0364      13.2         
     13400   297.96369      37755.767      18704.039      56459.806      292.83654      699.9715      -21.837986      200.37609      0.0026764152   0.00069843647  0.00268       -0.0044019336   0.00069819267  0.0026764152  -0.0044116506  -28.697456     -6.0534117     -13.918394      10.291889     -26.474057      5.2932837      59.764043      53.775551      61.767415      2              198510.86      1.2090998      12581.1        22000.664     -2602.4586      419.05888      333.81955      24716.187     -19692.602      5357.4038      13.4         
     13600   299.92607      37809.455      18827.223      56636.678      446.62223      130.11121      977.35044      232.40505      0.0027163075   0.001815254    0.00272       -0.0045494762   0.0018136084   0.0027163075  -0.0045598565   21.99548       24.184484      14.949832      0.77573821    -23.519363     -9.4046571      59.830742      53.777696      61.758261      2              198710.88      1.2078827      12591.447      22060.897     -2642.6911      399.88193      355.09334      24731.167     -19686.34       5399.9201      13.6         
     13800   297.58822      37906.829      18680.47       56587.299      149.20112      133.19856      178.33715      136.06766      0.0027561982   0.0010373374   0.00276       -0.0052048188   0.0010367997   0.0027561982  -0.0052184111   4.7421406     -8.8370723     -9.8184149      6.3453533     -18.100894     -2.2577109      59.784283      53.779841      61.717603      2              198433.78      1.2095695      12485.835      22133.021     -2527.9038      413.1966       357.89942      24735.618     -19690.837      5402.6805      13.8         
     14000   295.49597      37774.156      18549.133      56323.289     -377.5171      -18.449644      116.35499     -1230.4566      0.0027960873   0.0014184927   0.0028        -0.0038952251   0.0014174876   0.0027960873  -0.0039028313  -4.5302104      9.2929616     -13.326105      21.861895     -19.201539      17.537013      59.807047      53.781987      61.798851      2              198778.59      1.2074713      12538.817      22155.418     -2672.4584      415.56813      343.73331      24681.848     -19688.77       5336.8112      14           
     14200   297.0837       37913.607      18648.799      56562.406      796.04384      986.68233      1325.9463      75.502865      0.0028359748   0.00095345189  0.00284       -0.0025927009   0.00095299765  0.0028359748  -0.0025960678   11.263678      31.257826      4.7524594      7.1472266     -4.1357368      0.74908029     59.779273      53.784132      61.879661      2              198954.02      1.2064066      12654.214      22178.119     -2713.7795      397.7465       379.71019      24703.81      -19686.214      5397.3066      14.2         
     14400   297.21408      37921.702      18656.984      56578.685      226.81499      355.47338      299.82763      25.143963      0.0028758607  -0.00055906851  0.00288       -0.0023153289  -0.00055922485  0.0028758607  -0.0023180134  -1.4850133      4.1638857      0.36965673     2.5656187     -29.378929      4.5458677      59.688942      53.786277      61.896869      2              198716.55      1.2078482      12545.94       22234.632     -2737.1546      398.71139      476.52495      24690.445     -19687.397      5479.5737      14.4         
     14600   295.27678      37848.007      18535.373      56383.381     -557.97744     -398.78079     -361.42358     -913.72796      0.0029157451  -0.0013685761   0.00292       -0.0030585402  -0.0013695135   0.0029157451  -0.0030632271   3.9482674      39.301067      31.004624     -3.4167223     -16.557741      8.1255828      59.640596      53.788423      61.85076       2              198415.6       1.2096803      12654.321      22083.665     -2604.928       374.41328      288.17922      24744.561     -19692.204      5340.5362      14.6         
     14800   296.11597      37791.223      18588.052      56379.275      493.29526      1401.7617      44.840368      33.283746      0.0029556278  -0.0014872657   0.00296       -0.0047570342  -0.0014883728   0.0029556278  -0.0047683849  -17.866539      22.454379     -15.421425     -8.1815873     -21.704555      3.4303959      59.633508      53.790568      61.745384      2              198061.92      1.2118404      12582.834      22189.488     -2712.328       422.99557      289.66921      24708.076     -19689.512      5308.2338      14.8         
     15000   297.05176      38059.023      18646.794      56705.818      283.14327      820.72819      377.56025     -348.85863      0.002995509    9.8073185e-05  0.003         -0.0047753077   9.8068376e-05  0.002995509   -0.0047867459  -22.224563      2.0192932     -16.226917     -6.9023262     -21.560618      18.586384      59.728188      53.792713      61.744251      2              198380.65      1.2098934      12549.167      22263.033     -2556.4264      412.09314      339.82633      24743.911     -19692.581      5391.1564      15           
     15200   299.757        37752.962      18816.61       56569.572      193.08275      239.39399     -283.70652      623.56077      0.0030353885   0.0029887719   0.00304       -0.0049419375   0.0029843144   0.0030353885  -0.0049541892   3.0473136      3.1293031      7.934362       3.8553753     -18.382468      5.907347       59.900827      53.794858      61.733913      2              198928.68      1.2065603      12623.246      22120.205     -2816.2445      421.08635      402.12095      24696.478     -19693.93       5404.6687      15.2         
     15400   298.91489      37752.205      18763.748      56515.954      562.66148     -53.510116      1159.5503      581.94422      0.0030752665   0.0046917236   0.00308       -0.0055467419   0.0046807518   0.0030752665  -0.0055621822   21.775573      21.578828      10.180324      3.9815073     -34.052309      10.287633      60.002532      53.797004      61.69639       2              199153.26      1.2051997      12496.035      22172.137     -2764.1102      394.91267      349.12401      24794.883     -19690.777      5453.2305      15.4         
     15600   297.76222      38051.815      18691.392      56743.207      796.86994     -5.8665403      989.12432      1407.352       0.0031151429   0.004440535    0.00312       -0.0065655873   0.0044307049   0.0031151429  -0.0065872356   4.1166946      22.161449      0.76646415     3.0287401     -18.411325      10.132797      59.98753       53.799149      61.633181      2              198907.41      1.2066893      12576.993      22284.058     -2679.8126      423.827        395.80064      24738.828     -19687.879      5446.7502      15.6         
     15800   299.26227      37961.296      18785.554      56746.851     -155.07815     -76.402496     -169.06765     -219.76431      0.0031550177   0.0027067895   0.00316       -0.0078726288   0.0027031328   0.0031550177  -0.0079037815   17.327782      27.204392      9.6519761     -5.021011      -15.791457     -2.7847393      59.883987      53.801294      61.552091      2              198310.74      1.2103199      12575.626      22133.826     -2548.5809      402.55141      350.11728      24739.031     -19691.275      5397.8735      15.8         
     16000   296.74308      37821.996      18627.417      56449.414      782.73077      1782.9303      192.389        372.87295      0.0031948909   0.00073056773  0.0032        -0.0080505157   0.000730301    0.0031948909  -0.0080830961  -8.5044819     -37.254802     -28.082171      4.3053478     -21.956937      2.3732974      59.765962      53.803439      61.541055      2              197892.3       1.2128791      12645.086      22158.359     -2700.7066      390.43797      310.06393      24710.233     -19691.476      5328.8204      16           
     16200   298.13892      37840.014      18715.038      56555.052      340.5487      -429.38058      219.59907      1231.4276      0.0032347625   0.00097812016  0.00324       -0.00557805     0.00097764211  0.0032347625  -0.0055936654  -26.796971     -9.5178529     -9.3510266     -1.8564664     -19.896492     -7.7182171      59.780747      53.805585      61.694448      2              198442.54      1.2095161      12557.428      22161.254     -2636.0498      397.87659      308.85521      24739.36      -19688.709      5359.5061      16.2         
     16400   301.10832      37853.733      18901.436      56755.169      384.02028      247.47045      275.2203       629.37008      0.0032746325   0.00066418248  0.00328       -0.0050674088   0.00066396201  0.0032746325  -0.0050802916   19.736541      38.237168      16.208437     -3.6460176     -31.530367     -4.3820499      59.761998      53.80773       61.726128      2              198490.08      1.2092264      12594.472      22174.036     -2715.0253      401.88591      402.96156      24682.987     -19687.585      5398.3638      16.4         
     16600   297.28041      37876.344      18661.147      56537.491      299.07925      795.50593     -369.25939      470.99122      0.003314501    0.0011312789   0.00332       -0.0048158772   0.0011306395   0.003314501   -0.0048275109  -29.196643     -29.412618     -9.3206195      4.0077374     -21.905183      7.3983606      59.789894      53.809875      61.741734      2              198640.86      1.2083085      12499.871      22121.046     -2601.467       405.91457      413.37478      24724.354     -19686.75       5450.9789      16.6         
     16800   296.60088      37970.963      18618.491      56589.454      417.10965      830.25587      423.29953     -2.2264533      0.0033543678   0.0037000633   0.00336       -0.0039505122   0.0036932349   0.0033543678  -0.003958336   -21.062967      22.278554     -9.3520166      10.909986     -10.843431      15.327165      59.943307      53.812021      61.795421      2              199331.67      1.204121       12576.392      22172.537     -2688.4406      407.01247      444.0652       24746.103     -19686.705      5503.4628      16.8         
     17000   300.52578      38094.279      18864.868      56959.147     -775.49764     -537.55759     -447.24732     -1341.688       0.0033942331   0.0053480139   0.0034        -0.0037768256   0.0053337641   0.0033942331  -0.0037839758   36.313152      25.453037      27.258635     -1.2484591     -30.932525     -2.2901098      60.041727      53.814166      61.806197      2              199701.72      1.2018897      12725.469      22241.906     -2738.7367      401.71572      366.40845      24788.504     -19690.988      5463.9241      17           
     17200   298.32483      37904.031      18726.708      56630.74       232.03164      1198.2812     -359.18316     -143.0031       0.0034340967   0.0039108597   0.00344       -0.0054122979   0.0039032322   0.0034340967  -0.0054269975   13.693724      18.49589       12.534431      6.8273141     -14.724575     -22.238333      59.955897      53.816311      61.704731      2              199096.81      1.2055414      12526.388      22250.304     -2612.4721      416.38071      274.85818      24736.651     -19688.078      5323.431       17.2         
     17400   296.56112      37912.731      18615.995      56528.727      548.40459      1495.8142      80.732224      68.667358      0.0034739588   0.0028544243   0.00348       -0.0065673256   0.0028503581   0.0034739588  -0.0065889854   0.94226232     14.63147      -18.22177       13.931685     -15.964048      0.91360116     59.892804      53.818456      61.633073      2              198664.24      1.2081663      12630.701      22203.44      -2761.5162      383.66447      467.11905      24678.034     -19688.711      5456.442       17.4         
     17600   293.85631      37984.689      18446.207      56430.895     -704.91507      147.55536     -701.58046     -1560.7201      0.0035138193   0.0030474638   0.00352       -0.0062435649   0.0030428297   0.0035138193  -0.0062631374  -22.991529     -15.269006     -9.8865256      14.831804     -12.363798      0.91260434     59.904333      53.820602      61.653159      2              198775.16      1.2074921      12456.394      22384.13      -2632.8801      406.96653      298.72389      24760.563     -19689.208      5370.0786      17.6         
     17800   298.27854      37932.055      18723.803      56655.858      132.63975      716.7915      -521.72183      202.84959      0.0035536782   0.0034655302   0.00356       -0.0062151994   0.0034595391   0.0035536782  -0.0062345941  -0.34349031     10.079838      7.0199184      14.051053     -22.580167     -1.1087226      59.929301      53.822747      61.654919      2              198871.61      1.2069065      12445.955      22196.842     -2634.6221      392.29621      431.41083      24789.33      -19689.157      5531.5839      17.8         
     18000   300.47753      37757.738      18861.84       56619.577      579.31508      299.0117       105.00524      1333.9283      0.0035935355   0.0033979175   0.0036        -0.0055004626   0.0033921576   0.0035935355  -0.0055156459   8.7123953      7.7805888     -7.3729866      11.439545     -29.824463      10.844764      59.925263      53.824892      61.699262      2              199009.17      1.2060723      12524.869      22263.552     -2796.8449      416.01441      317.50558      24723.032     -19690.39       5350.1471      18           
     18200   297.66408      37720.464      18685.231      56405.695      244.73949      172.86465      112.20927      449.14454      0.0036333912   0.0025380512   0.00364       -0.0052292057   0.0025348358   0.0036333912  -0.0052429259   23.347968      28.875414      16.607886     -0.70368207    -9.9363672     -1.423579       59.873909      53.827037      61.71609       2              198900.79      1.2067295      12472.441      22141.736     -2737.6827      414.06365      365.62944      24753.951     -19689.674      5429.9064      18.2         
     18400   298.28156      37927.577      18723.992      56651.569     -191.50336      29.942573     -120.08077     -484.37188      0.0036732454   0.001329381    0.00368       -0.0049054645   0.0013284982   0.0036732454  -0.0049175358  -12.391935     -5.2372777     -8.7539703     -6.0077824     -7.6266578      13.536856      59.801725      53.829183      61.736176      2              198733.56      1.2077449      12682.932      22148.559     -2708.6644      417.06523      391.77968      24688.422     -19692.517      5387.6852      18.4         
     18600   301.63971      38019.423      18934.793      56954.217      82.406764     -2.5494937      894.00741     -644.23762      0.0037130979   0.0019214681   0.00372       -0.0047989134   0.0019196244   0.0037130979  -0.0048104652  -29.099918     -2.6144387     -8.0841957     -7.3856591     -22.746515     -4.6243886      59.837086      53.831328      61.742786      2              198880.29      1.2068538      12565.506      22301.196     -2663.024       416.38041      417.51492      24672.325     -19690.475      5399.3649      18.6         
     18800   296.37018      37988.818      18604.009      56592.828     -1410.8613     -1117.8085     -1138.7701     -1976.0051      0.0037529489   0.0037398699   0.00376       -0.0036493237   0.003732894    0.0037529489  -0.0036559987   20.080691      10.544493      11.750279      10.371038     -2.8629529      6.4185714      59.945685      53.833473      61.814107      2              199479.34      1.2032296      12653.81       22285.904     -2623.9869      402.96998      238.27767      24724.831     -19692.987      5270.1212      18.8         
     19000   295.5326       37875.664      18551.432      56427.096     -521.94864     -589.21933     -197.93105     -778.69555      0.0037927982   0.0029847807   0.0038        -0.0046212307   0.0029803351   0.0037927982  -0.0046319416   5.1706986      28.136235      14.014459      10.303187     -20.485246      7.4168762      59.900589      53.835619      61.75381       2              199142.78      1.2052631      12539.614      22141.286     -2605.5697      398.31924      347.53332      24744.029     -19689.549      5402.0142      19           
     19200   298.03327      37998.472      18708.406      56706.878      0.56925448    -139.39138     -30.770718      171.86986      0.003832646    0.0016896351   0.00384       -0.0055865298   0.0016882092   0.003832646   -0.0056021929   13.962803      4.3824417     -18.393489     -2.6662263     -4.6208709     -7.4955975      59.82324       53.837764      61.693922      2              198700.67      1.2079448      12623.236      22178.096     -2565.2836      405.97516      399.11492      24644.012     -19686.679      5356.4481      19.2         
     19400   299.81581      37829.622      18820.301      56649.924      408.29824      877.48628      148.08507      199.32336      0.0038724922   0.00092008792  0.00388       -0.0054721348   0.0009196649   0.0038724922  -0.0054871618  -24.214283     -11.235475     -11.761837     -5.3098226     -29.27341      -5.9568781      59.777281      53.839909      61.701019      2              198578.77      1.2086863      12469.86       22306.886     -2724.327       388.12607      382.32059      24698.526     -19691.769      5389.0773      19.4         
     19600   297.75808      37752.521      18691.132      56443.653     -314.86284     -147.26836     -571.33413     -225.98602      0.0039123368   0.00043948694  0.00392       -0.0051922668   0.00043939039  0.0039123368  -0.0052057934   15.208299      19.725376      13.467413      5.7700107     -18.491517      4.2469365      59.748578      53.842054      61.718382      2              198547.18      1.2088786      12607.426      22113.775     -2704.1004      390.81208      321.02674      24715.428     -19691.847      5344.6079      19.6         
     19800   300.04636      37818.139      18834.774      56652.912     -882.62051     -1750.6832     -564.82401     -332.35435      0.0039521798  -0.00074533128  0.00396       -0.004510093   -0.00074560917  0.0039521798  -0.0045202942  -10.156233     -17.083952     -26.431303      11.342813     -13.831197      2.9700975      59.677818      53.8442        61.760705      2              198455.94      1.2094344      12419.361      22089.116     -2443.4431      400.87171      275.7499       24766.032     -19689.55       5352.2324      19.8         
     20000   299.88131      37850.963      18824.413      56675.376     -277.98446     -264.51593      709.10052     -1278.538       0.0039920213  -0.0012104989   0.004         -0.0016394933  -0.0012112322   0.0039920213  -0.0016408388  -9.8498391     -0.27558417     10.356402     -9.0469942     -20.074008      7.0890632      59.650037      53.846345      61.938798      2              198943.48      1.2064705      12565.862      22089.741     -2625.3091      403.2693       360.70925      24740.415     -19683.724      5417.4008      20           
     20200   295.44322      37805.65       18545.822      56351.472     -83.772851     -584.54145      573.35277     -240.12987      0.0040318611  -0.0013207324   0.00404       -0.00014411959 -0.0013216054   0.0040318611  -0.00014412997 -0.09688198     15.807974      16.309834      13.52838      -15.39695      -4.6394862      59.643454      53.84849       62.031572      2              199227.42      1.2047511      12531.785      22149.322     -2628.8476      409.78957      269.26531      24761.676     -19687.34       5343.6018      20.2         
     20400   297.95907      37961.096      18703.748      56664.844     -985.62764     -191.20199     -1749.2329     -1016.448       0.0040716994  -0.0029208272   0.00408       -0.00048642403 -0.0029251011   0.0040716994  -0.00048654237  8.78056        12.967001      26.194586      2.0959435     -21.240099      8.77356        59.547892      53.850635      62.010335      2              198848.04      1.2070496      12599.434      22248.553     -2610.2642      406.77112      311.23265      24695.593     -19690.224      5316.6012      20.4         
     20600   299.00501      37885.587      18769.406      56654.992     -66.018742      625.88449     -514.87941     -309.06131      0.004111536   -0.0037333527   0.00412       -0.0017181912  -0.0037403391   0.004111536   -0.001719669   -15.500075      32.666161     -4.5444351     -12.171352     -5.2158225      2.9322926      59.499366      53.852781      61.933916      2              198449.04      1.2094764      12442.349      22124.346     -2455.5716      413.68378      314.13507      24735.675     -19689.031      5360.7794      20.6         
     20800   296.51401      37796.749      18613.038      56409.787      630.79024      1587.6227     -500.84253      805.59055      0.0041513711  -0.003042186    0.00416       -0.0026080424  -0.0030468229   0.0041513711  -0.0026114492  -16.226312     -6.4687398     -4.1854038      4.8368647     -14.639692      5.346187       59.540645      53.854926      61.878709      2              198417.61      1.209668       12464.883      22146.086     -2571.0757      413.32781      295.88716      24740.922     -19693.282      5343.5277      20.8         
     21000   296.53344      37586.474      18614.258      56200.732     -882.63792     -913.71855     -230.29107     -1503.9041      0.0041912046  -0.0001735043   0.0042        -0.0043247488  -0.00017351935  0.0041912046  -0.0043341276  -7.7243283      9.9511065      8.8273794     -18.832592     -20.805582     -4.9424017      59.711969      53.857071      61.772203      2              198653.96      1.2082288      12479.695      21964.076     -2545.325       400.31361      210.82093      24766.297     -19689.404      5287.7146      21           
     21200   295.91048      38008.665      18575.153      56583.818      245.04005     -474.60641      962.61917      247.10738      0.0042310365   0.0016506343   0.00424       -0.0067261098   0.0016492735   0.0042310365  -0.006748832    31.663951      28.734508      5.4980904     -14.527179     -33.717275      1.7223014      59.820911      53.859217      61.623222      2              198544.31      1.2088961      12719.022      22322.058     -2800.5581      409.91884      333.40141      24721.03      -19696.208      5358.2238      21.2         
     21400   297.85651      37923.734      18697.311      56621.045     -231.67483     -470.35871      4.9651055     -229.6309       0.0042708669   0.0021759981   0.00428       -0.0085558542   0.002173634    0.0042708669  -0.0085926657  -9.8113721      28.209855     -24.442763      4.0052115     -20.717331     -7.3252887      59.852287      53.861362      61.509703      2              198290.41      1.210444       12723.161      22131.45      -2539.1679      425.53962      231.21052      24642.883     -19691.341      5182.7523      21.4         
     21600   296.89576      37678.865      18637.002      56315.867     -136.64494     -76.055648     -479.10642      145.22726      0.0043106956   0.003049922    0.00432       -0.0086615743   0.0030452804   0.0043106956  -0.0086993037  -13.025326      34.522656     -10.225024     -3.9145349     -19.856526      5.8777053      59.904479      53.863507      61.503145      2              198450.07      1.2094702      12504.722      22086.957     -2535.1208      398.81048      207.5698       24708.802     -19692.875      5223.4967      21.6         
     21800   297.37011      37845.505      18666.778      56512.283      472.50201      29.450763      491.58285      896.47241      0.0043505227   0.0047383287   0.00436       -0.0080817201   0.0047271382   0.0043505227  -0.0081145542   6.3397477      3.8769467     -2.4305183      9.4977233     -7.4512685      7.836805       60.005315      53.865652      61.539119      2              198908.31      1.2066838      12593.828      22074.662     -2554.4687      401.11181      290.42548      24733.364     -19693.417      5330.3723      21.8         
     22000   299.2494       37829.943      18784.746      56614.69       785.1679       1169.1921      65.606036      1120.7055      0.0043903483   0.0054383144   0.0044        -0.0082339889   0.0054235802   0.0043903483  -0.0082680754   13.349024      32.010132      17.065065     -3.2732806     -8.4630539      2.2896085      60.04712       53.867798      61.529672      2              199024.25      1.2059809      12527.714      22171.787     -2639.8469      410.72616      375.45477      24676.639     -19692.531      5359.5628      22           
     22200   293.20005      37980.173      18405.012      56385.184      208.87608      662.95901     -545.87924      509.54846      0.0044301723   0.0053363622   0.00444       -0.0082582078   0.0053221743   0.0044301723  -0.0082924957   5.9642005     -4.1177129     -11.26197       3.0888959     -20.410537      5.5516356      60.041031      53.869943      61.52817       2              199007.14      1.2060846      12539.9        22256.335     -2663.9686      428.32747      380.77195      24732.812     -19694.004      5419.5794      22.2         
     22400   297.2023       37922.207      18656.244      56578.451      985.2854       845.42726      904.89599      1205.533       0.0044699947   0.0044065198   0.00448       -0.0079693848   0.0043968395   0.0044699947  -0.0080013101   4.5506637      4.7882053     -14.48638       16.962988     -13.432319      9.2870034      59.985499      53.872088      61.546088      2              198888.9       1.2068016      12630.943      22157.565     -2675.1079      405.77789      378.30773      24715.213     -19690.492      5403.0293      22.4         
     22600   298.33846      37925.238      18727.564      56652.802      309.74916      110.50657      261.49952      557.24141      0.0045098155   0.0029302068   0.00452       -0.0065072095   0.0029259221   0.0045098155  -0.0065284737   4.8962769      36.55839       6.5821786      7.5147126     -23.755795      14.06093       59.89733       53.874233      61.636802      2              198897.2       1.2067512      12570.76       22203.104     -2660.7507      403.06811      354.99498      24745.926     -19691.865      5409.0565      22.6         
     22800   297.98187      37541.728      18705.18       56246.908     -612.74023     -944.18895     -385.66824     -508.3635       0.0045496347   0.00048036193  0.00456       -0.0048714129   0.0004802466   0.0045496347  -0.0048833169   0.84701868     10.619939      7.5684314      6.9060151     -21.776914      17.677328      59.751019      53.876379      61.738288      2              198745.96      1.2076696      12414.841      22042.366     -2680.5305      397.03415      326.34217      24736.231     -19694.555      5368.0181      22.8         
     23000   299.19275      37656.569      18781.19       56437.76      -1230.2713     -1209.2964     -736.08332     -1745.434       0.0045894523  -0.0027784176   0.0046        -0.0036738721  -0.0027822845   0.0045894523  -0.0036806374  -24.763341      2.1483141      7.4746017     -19.116892     -16.197608      5.5983125      59.556397      53.878524      61.812584      2              198344.89      1.2101116      12542.266      22008.006     -2625.3671      400.54922      299.28257      24726.678     -19694.845      5331.1154      23           
     23200   298.61191      37917.366      18744.729      56662.096      194.37261     -286.38981      619.68103      249.82662      0.0046292684  -0.0046378726   0.00464       -0.002058717   -0.0046486609   0.0046292684  -0.0020608391  -25.093137     -9.1741298     -7.6062323     -2.6944465     -19.737653      10.7193        59.445346      53.880669      61.912789      2              198303.88      1.2103618      12649.948      22151.151     -2668.2724      382.82734      338.63319      24754.931     -19691.852      5401.7124      23.2         
     23400   294.50528      37811.68       18486.944      56298.624      882.46667      281.06675      1000.3867      1365.9465      0.0046690828  -0.0051482808   0.00468        0.00072881349 -0.0051615789   0.0046690828   0.00072854803 -3.9854024     -9.539434      -6.4033323     -20.982541     -22.192553      10.647507      59.414864      53.882815      62.085729      2              198763.74      1.2075615      12618.35       22089.82      -2703.2248      405.75044      354.34796      24739.546     -19692.91       5400.9839      23.4         
     23600   296.60918      37874.987      18619.012      56493.999      393.38349      554.42681      84.230132      541.49352      0.0047088957  -0.005100234    0.00472        0.0027224286  -0.0051132846   0.0047088957   0.0027187295   2.0516724      13.372428      35.949072     -15.091713     -13.308875     -6.4249832      59.417733      53.88496       62.209414      2              199177.26      1.2050544      12556.352      22204.751     -2669.8833      403.1134       317.66554      24756.24      -19693.252      5380.6535      23.6         
     23800   300.63295      37736.306      18871.596      56607.902     -184.82581     -998.75959     -216.31944      660.60161      0.004748707   -0.0046954938   0.00476        0.00047775959 -0.0047065522   0.004748707    0.0004776455  -14.092722      4.8610374      33.201047      5.5301636     -14.26224      -5.142574       59.441905      53.887105      62.070154      2              198820.15      1.2072189      12463.882      22108.75      -2701.1151      395.68351      398.24741      24763.805     -19692.947      5469.1053      23.8         
     24000   298.21114      37640.246      18719.572      56359.818      304.8175       481.23965     -147.41997      580.63281      0.0047885167  -0.0026435527   0.0048        -0.0028880447  -0.002647053    0.0047885167  -0.0028922232  -16.872209      3.6778023      0.4316531      1.4595685     -6.1262226      9.214902       59.564452      53.88925       61.861337      2              198567.7       1.2087537      12454.239      22103.998     -2710.2643      375.78115      378.77538      24732.987     -19695.271      5416.4914      24           
     24200   297.60187      37682.058      18681.326      56363.384     -820.01302     -1174.8288     -252.00229     -1033.208       0.0048283249   0.00043967863  0.00484       -0.0048589199   0.000439582    0.0048283249  -0.0048707628  -10.29343       12.711054     -0.47090455    -3.9571817     -22.502883      9.800787       59.74859       53.891396      61.739063      2              198795.76      1.207367       12456.897      22171.775     -2667.1508      380.69691      285.82698      24745.97      -19691.957      5339.8399      24.2         
     24400   298.28612      37825.505      18724.279      56549.784     -1025.2376     -738.56597     -1129.2499     -1207.8968      0.0048681314   0.0025462155   0.00488       -0.0071728639   0.0025429793   0.0048681314  -0.0071987126  -7.6820687      2.2624939      7.3202897     -8.1801531     -30.280644      15.104631      59.874397      53.893541      61.595505      2              198759.04      1.2075901      12645.988      22166.436     -2807.6736      407.8791       416.06258      24687.636     -19690.823      5412.8754      24.4         
     24600   298.25019      37786.562      18722.023      56508.585     -56.440708     -51.622656     -328.28627      210.5868       0.0049079364   0.0047133528   0.00492       -0.0076427607   0.0047022797   0.0049079364  -0.0076721162  -7.2585082     -8.3011278     -14.531248      6.7997964     -8.1157719      12.429655      60.003823      53.895686      61.566352      2              199102.33      1.2055079      12418.119      22256.524     -2628.6978      407.62965      302.74052      24723.012     -19692.766      5332.9869      24.6         
     24800   299.28052      37966.762      18786.7        56753.461     -849.69591     -68.600851     -1231.6997     -1248.7872      0.0049477397   0.004275238    0.00496       -0.0083824227   0.0042661251   0.0049477397  -0.0084177528   25.673536      31.789237      10.417887      0.60969749    -19.350833      2.2275689      59.977658      53.897831      61.520463      2              198875.09      1.2068854      12466.526      22288.484     -2607.3437      411.56214      411.27275      24687.338     -19691.078      5407.5327      24.8         
     25000   296.68023      37854.743      18623.472      56478.215     -774.95566     -225.53563     -2022.9876     -76.343767      0.0049875415   0.0036524806   0.005         -0.0079038404   0.0036458265   0.0049875415  -0.0079352413   6.0655158      40.33369      -19.680262     -2.2979988     -9.7909968     -6.5299515      59.940466      53.899977      61.550155      2              198855.61      1.2070036      12531.378      22296.972     -2776.8881      399.35963      336.88245      24761.426     -19694.387      5403.9213      25           
     25200   299.8526       37667.68       18822.611      56490.291     -569.7185       86.006649     -1849.0304      53.868265      0.0050273417   0.0026268268   0.00504       -0.0070744623   0.0026233827   0.0050273417  -0.0070996049   1.4750473      28.659456      8.2635498      8.2358139     -6.8908628      3.1167284      59.879211      53.902122      61.60161       2              198826.38      1.2071811      12442.44       22263.541     -2709.0773      396.63827      228.06905      24735.209     -19689.14       5274.1377      25.2         
     25400   302.07239      37977.52       18961.954      56939.474      101.16643      204.14155     -290.31321      389.67096      0.0050671403   0.002215757    0.00508       -0.0075604785   0.0022133059   0.0050671403  -0.0075892038  -19.945193      20.393976      6.2740465     -0.30274945    -15.061503      13.072188      59.854661      53.904267      61.571457      2              198655.48      1.2082196      12634.022      22184.897     -2623.014       406.48768      328.47688      24736.012     -19689.361      5375.1284      25.4         
     25600   298.51069      38008.085      18738.375      56746.46      -148.99892      206.40183     -647.50686     -5.8917305      0.0051069374   0.0023174713   0.00512       -0.0066192146   0.0023147901   0.0051069374  -0.0066412188   7.7808674      21.176169     -19.303197     -8.9000052     -10.1963        5.8016036      59.860736      53.906413      61.629854      2              198871.99      1.2069042      12707.748      22200.502     -2755.255       397.72815      432.34287      24715.545     -19690.525      5457.3629      25.6         
     25800   296.90887      37811.52       18637.825      56449.344     -413.15854      837.44801     -939.64655     -1137.2771      0.0051467328   0.0017771824   0.00516       -0.0048731553   0.0017756051   0.0051467328  -0.0048850678   18.738861      28.409221      6.0415402      1.01883       -14.530356      11.209684      59.828468      53.908558      61.73818       2              199122.08      1.2053884      12625.103      22151.596     -2702.3088      398.79861      268.29678      24761.76      -19691.726      5338.3312      25.8         
     26000   298.5108       37882.915      18738.382      56621.297      301.49066      1107.8513     -270.40355      67.024248      0.0051865267  -0.00073380229  0.0052        -0.0040645941  -0.00073407165  0.0051865267  -0.004072877    3.064625       29.313448     -1.3487691     -4.8418833     -5.2086072      2.4791755      59.678507      53.910703      61.788344      2              198792.27      1.2073882      12448.099      22276.517     -2589.6465      405.8894       320.09897      24713.403     -19691.445      5342.0567      26           
     26200   299.60367      37863.743      18806.985      56670.728     -542.34267     -184.76763     -1226.6279     -215.63252      0.005226319   -0.0020078318   0.00524       -0.002989034   -0.0020098502   0.005226319   -0.0029935101  -18.947978      20.476231      10.396242      17.74503      -34.5563        23.904776      59.602419      53.912848      61.855072      2              198761.14      1.2075773      12455.541      22212.469     -2519.9213      407.70331      308.5898       24687.854     -19688.493      5307.9509      26.2         
     26400   299.01054      37770.475      18769.752      56540.228     -113.09062      374.66456     -323.27556     -390.66085      0.0052661097  -0.0017911672   0.00528       -0.002911976   -0.0017927733   0.0052661097  -0.002916224   -0.24540339     12.922961      12.885472      3.2175813     -19.675983     -3.5051232      59.615358      53.914994      61.859853      2              198827.57      1.2071739      12516.113      22149.351     -2569.7569      412.10683      221.66605      24726.593     -19685.597      5262.6618      26.4         
     26600   296.88491      37864.065      18636.32       56500.385      217.04161     -195.20507      1271.7991     -425.46923      0.0053058988  -0.0014849321   0.00532       -0.0052563504  -0.0014860357   0.0053058988  -0.0052702136  -9.8739599     -3.4349708      14.65493      -2.1160486     -19.65775       27.686036      59.633647      53.917139      61.714406      2              198428.83      1.2095996      12530.455      22228.791     -2682.8882      406.52815      327.10455      24741.265     -19687.19       5381.1788      26.6         
     26800   297.35881      37901.393      18666.069      56567.462      887.02833      11.485763      1266.3243      1383.275       0.0053456863  -0.0011334213   0.00536       -0.0069641855  -0.0011340641   0.0053456863  -0.0069885486   6.8075524     -11.538709     -9.2420869     -3.2256519      10.034005     -6.2282915      59.65464       53.919284      61.608451      2              198165.77      1.2112053      12636.113      22264.411     -2833.591       426.79816      374.11601      24721.437     -19687.891      5407.662       26.8         
     27000   296.64517      37842.572      18621.271      56463.843      514.5271       652.9093       911.70196     -21.029964      0.0053854723  -0.00082892637  0.0054        -0.0086647205  -0.00082927012  0.0053854723  -0.0087024775  -15.989152     -13.101715     -5.3644131     -7.9142691     -13.704903     -4.6436239      59.672826      53.921429      61.502949      2              197894.6       1.212865       12568.721      22160.888     -2698.0834      407.84199      329.63114      24768.199     -19694.627      5403.2036      27           
     27200   295.99379      37713.856      18580.383      56294.238     -585.00763     -176.74342     -941.22922     -637.05024      0.0054252566   0.0019529889   0.00544       -0.0077186268   0.0019510843   0.0054252566  -0.0077485696  -27.164515     -15.912968     -37.578133      2.565162      -8.410478       1.44091        59.838968      53.923575      61.561645      2              198642.87      1.2082962      12619.486      22110.859     -2703.7462      410.24006      271.46522      24696.29      -19690.739      5277.0166      27.2         
     27400   298.34366      37991.583      18727.89       56719.473     -965.80921     -802.23422     -1689.7564     -405.43704      0.0054650394   0.0049233422   0.00548       -0.0062224326   0.0049112622   0.0054650394  -0.0062418726   18.411951      21.013807      1.7237921      0.23718801    -5.7617754      13.331593      60.016364      53.92572       61.65447       2              199540.11      1.2028631      12587.439      22138.089     -2546.0367      417.41975      351.3239       24733.488     -19690.141      5394.6713      27.4         
     27600   298.41804      37724.366      18732.56       56456.926     -470.34216     -445.74247     -1148.0156      182.73161      0.0055048206   0.0049663637   0.00552       -0.0062475925   0.004954072    0.0055048206  -0.0062671904   32.209243      24.247221      18.353063      2.6552327     -14.331925      12.325925      60.018934      53.927865      61.652909      2              199551.54      1.2027942      12453.907      21983.914     -2542.8219      385.52983      394.51875      24741.707     -19692.388      5443.8372      27.6         
[...]
    744000   296.3084       38077.214      18600.132      56677.346     -91.947148      589.64514     -1475.9905      610.5039       0.13871792    -0.053217918    0.1488        -0.061606575   -0.054686326    0.13871792    -0.063585988    9.805674       131.74298      16.459179     -0.78044593     5.9451672      6.0356506      56.544033      61.612232      58.21841       2              202821.53      1.1834022      12529.75       22133.651     -2696.8356      403.68224      619.54852      24777.163     -19689.745      5706.9661      744          
    744200   298.61051      38021.779      18744.641      56766.42      -25.573573      177.03152     -1500.4681      1246.7159      0.13875274    -0.053011034    0.14884       -0.064082702   -0.054467837    0.13875274    -0.066228163   -16.117316      130.08278     -13.106189     -4.7185589     -2.6309359      19.287312      56.556388      61.614377      58.064789      2              202337.6       1.1862325      12345.81       22307.705     -2727.3921      410.65189      625.88143      24748.033     -19688.91       5685.0041      744.2        
    744400   297.61211      38276.13       18681.969      56958.099     -762.74276     -213.51846     -1278.1052     -796.60467      0.13878755    -0.051570244    0.14888       -0.063839901   -0.05294755     0.13878755    -0.065968772   -2.970428       143.65397     -27.063654     -5.3420146      13.013948     -5.2001021      56.642436      61.616523      58.079853      2              202705.07      1.1840821      12613.323      22216.053     -2641.2371      397.35611      606.90647      24774.276     -19690.548      5690.6351      744.4        
    744600   297.15477      38028.592      18653.26       56681.852     -883.62764     -699.93163     -1412.5879     -538.36341      0.13882237    -0.050527319    0.14892       -0.06275941    -0.051848522    0.13882237    -0.064815263    15.257528      155.45482      11.974573     -9.7530525     -3.1825224      4.6378678      56.704722      61.618668      58.146887      2              203169.26      1.1813767      12562.319      22086.797     -2638.7511      402.7053       598.44728      24707.992     -19690.918      5615.521       744.6        
    744800   299.44602      38246.477      18797.088      57043.565     -665.33496      1137.797      -2399.2732     -734.52866      0.13885719    -0.049949081    0.14896       -0.063689455   -0.051239697    0.13885719    -0.065808079    0.43497978     160.8501       34.969776     -8.8931923     -9.6256065     -2.6235055      56.739255      61.620813      58.089187      2              203098.33      1.1817893      12543.876      22324.444     -2694.9209      410.49842      597.63551      24756.832     -19691.888      5662.5797      744.8        
    745000   298.94047      38124.675      18765.354      56890.029      302.11281      121.52095     -91.592583      876.41006      0.138892      -0.049509955    0.149         -0.065535754   -0.05077759     0.138892      -0.067781913   -9.9928855      142.48844     -17.171366     -18.897583     -1.5678031     -1.5858772      56.765481      61.622958      57.974641      2              202798.59      1.183536       12483.926      22252.527     -2762.8085      418.6293       656.40923      24765.077     -19689.086      5732.4007      745          
    745200   297.17803      38121.195      18654.721      56775.915     -550.02538     -35.443185     -2665.4678      1050.8348      0.13892681    -0.049176012    0.14904       -0.06664593    -0.050426314    0.13892681    -0.068970653    9.3258463      148.8178      -0.72772793    -4.8923489      2.5139075     -19.895907      56.785425      61.625104      57.905765      2              202635.88      1.1844864      12499.304      22228.794     -2700.7432      399.2828       607.66021      24775.926     -19689.03       5694.5569      745.2        
    745400   298.05683      38164.477      18709.886      56874.362     -289.96076      1144.0672     -1511.7288     -502.22061      0.13896162    -0.049153776    0.14908       -0.066975347   -0.050402929    0.13896162    -0.069323655   -9.4736735      163.48485     -5.7970171     -15.391692     -1.7095576      5.3192924      56.786753      61.627249      57.885328      2              202576.15      1.1848356      12564.5        22192.884     -2667.4001      413.49359      556.76444      24794.809     -19690.574      5660.9989      745.4        
    745600   296.85843      38174.176      18634.658      56808.835     -650.50657     -63.081658     -1051.7407     -836.69741      0.13899643    -0.04908012     0.14912       -0.0678624     -0.050325468    0.13899643    -0.070274836    3.1090518      153.24883      15.645145     -0.42403392     14.864554     -14.676434      56.791152      61.629394      57.830295      2              202406.28      1.18583        12613.852      22272.535     -2750.7017      395.13098      559.36766      24770.535     -19686.543      5643.3602      745.6        
    745800   296.557        37934.526      18615.736      56550.263     -716.90269     -816.66395     -667.0546      -666.98951      0.13903124    -0.04873342     0.14916       -0.068695693   -0.04996094     0.13903124    -0.071169195    5.871303       121.72846     -19.131985      0.43998909    -5.4775959     -1.6906734      56.811858      61.63154       57.778597      2              202306.11      1.1864172      12514.485      22146.864     -2724.8122      404.50997      493.71385      24788.081     -19688.315      5593.48        745.8        
    746000   296.867        38033.477      18635.196      56668.674     -68.989601      992.92328     -1370.1006      170.20855      0.13906605    -0.049578057    0.1492        -0.067976972   -0.050849242    0.13906605    -0.070397756    10.191956      143.34724      6.0879523      2.1519932     -2.7802505     -12.219405      56.761414      61.633685      57.823187      2              202289.51      1.1865145      12516.256      22242.031     -2822.6036      408.51002      608.39823      24769.38      -19688.494      5689.2843      746          
    746200   298.73624      38138.475      18752.534      56891.009     -57.836922      385.55739     -1148.7429      589.67471      0.13910085    -0.050549577    0.14924       -0.066608289   -0.051871964    0.13910085    -0.068930326   -4.5736521      159.24359     -24.529771     -2.3834604      4.176414      -8.414734       56.703392      61.63583       57.908101      2              202386.53      1.1859457      12556.31       22187.488     -2702.4172      414.2588       620.25367      24750.477     -19687.895      5682.836       746.2        
    746400   295.25513      38224.825      18534.014      56758.84      -340.95147     -553.08302     -1906.3404      1436.569       0.13913566    -0.050407741    0.14928       -0.064890178   -0.051722588    0.13913566    -0.0670913     -2.2958408      135.44771      2.9120079     -10.759955     -0.34904453     3.6321444      56.711863      61.637975      58.014693      2              202796.42      1.1835487      12631.355      22320.461     -2756.9043      396.037        566.8364       24757.877     -19690.836      5633.8768      746.4        
    746600   297.76716      37951.095      18691.702      56642.796     -522.73712      82.689481     -1875.1953      224.29447      0.13917046    -0.051477979    0.14932       -0.06439546    -0.052850273    0.13917046    -0.066562392    19.196371      133.55299      14.12271       4.524841       6.6914511      0.71870134     56.647946      61.640121      58.045386      2              202682.08      1.1842164      12593.406      22092.305     -2758.1589      405.13967      562.52839      24745.312     -19689.439      5618.4023      746.6        
    746800   298.09257      38266.645      18712.129      56978.774     -641.29231      208.25246     -1795.0809     -337.04849      0.13920527    -0.052647014    0.14936       -0.064602566   -0.054083514    0.13920527    -0.066783777   -16.272477      126.23082      1.8384404     -3.0789726     -6.978501       8.012651       56.578129      61.642266      58.032537      2              202394.51      1.185899       12462.782      22413.899     -2772.0782      408.76104      714.67918      24724.708     -19686.106      5753.2817      746.8        
    747000   296.39291      38108.263      18605.436      56713.699     -684.15232      5.1337227     -1573.1916     -484.39908      0.13924007    -0.052210344    0.1494        -0.063958605   -0.053622684    0.13924007    -0.066095578   -2.5133318      146.61333     -3.9186499      1.3909783      1.9458151     -7.174699       56.604208      61.644411      58.072488      2              202634.25      1.1844959      12601.343      22354.624     -2768.0511      397.32402      502.47085      24710.051     -19689.499      5523.0229      747          
    747200   298.69249      37910.783      18749.787      56660.57      -508.93872      634.31017     -1289.0434     -872.0829       0.13927487    -0.052484666    0.14944       -0.063829243   -0.053912159    0.13927487    -0.065957387    3.2326351      130.62338     -8.5052298     -5.9595        -12.035825     -4.2077193      56.587824      61.646556      58.080514      2              202610.65      1.1846339      12470.705      22088.173     -2699.7119      411.26796      576.19423      24753.476     -19689.322      5640.348       747.2        
    747400   296.88738      38175.737      18636.475      56812.212     -60.30263       389.63157     -423.69866     -146.8408       0.13930967    -0.052929544    0.14948       -0.062558288   -0.05438179     0.13930967    -0.064600697    11.64246       116.29322     -18.061058      2.8378079     -2.9185366     -14.611101      56.561255      61.648702      58.159365      2              202797.51      1.1835423      12656.979      22165.171     -2741.7885      390.92231      670.20323      24728.492     -19694.242      5704.4525      747.4        
    747600   299.66136      38134.24       18810.606      56944.846     -614.24504      269.75206     -1622.2444     -490.24275      0.13934446    -0.054054541    0.14952       -0.061587732   -0.055570366    0.13934446    -0.063565908   -2.7577176      156.44928      34.770422     -16.564447     -0.40838873    -9.9809092      56.494068      61.650847      58.219579      2              202773.39      1.1836831      12712.983      22245.806     -2861.0487      389.16183      618.4607       24721.113     -19692.236      5647.3377      747.6        
    747800   297.95681      37961.589      18703.607      56665.196     -429.05906      774.5656      -1486.7152     -575.0276       0.13937926    -0.054971391    0.14956       -0.062271126   -0.056540077    0.13937926    -0.064294419   -7.0747452      148.03977     -3.115324      -5.5354747      1.0942458     -7.2023687      56.439311      61.652992      58.17718       2              202436.37      1.1856538      12536.051      22221.555     -2776.3018      397.33923      542.97314      24732.525     -19692.553      5582.9454      747.8        
    748000   297.02758      38090.446      18645.276      56735.722     -813.26109     -494.60211     -1173.2548     -771.9264       0.13941406    -0.055394216    0.1496        -0.06367343    -0.056987598    0.13941406    -0.065790964   -7.7391912      141.29482      5.7750221      9.2649503     -2.5782396     -4.1120438      56.414059      61.655138      58.090181      2              202050.23      1.1879197      12543.165      22142.585     -2652.7091      398.20466      593.01548      24754.672     -19688.487      5659.2004      748          
    748200   297.4906       38250.82       18674.341      56925.161      691.94746      707.68091      314.07274      1054.0887      0.13944885    -0.055211873    0.14964       -0.065134668   -0.056794581    0.13944885    -0.06735279    -0.45911216     118.7832       5.0284846     -6.9648651     -3.6562734     -7.1533038      56.424949      61.657283      57.999525      2              201780.87      1.1895054      12636.751      22330.527     -2768.9461      422.17286      550.13728      24767.58      -19687.403      5630.3142      748.2        
    748400   297.94012      38001.27       18702.559      56703.829     -500.03143     -44.556854     -1624.3242      168.78674      0.13948364    -0.054515706    0.14968       -0.06600194    -0.056058003    0.13948364    -0.068280918   -21.042127      140.58242     -17.189278     -15.091804     -4.7535377      8.531608       56.466526      61.659428      57.945719      2              201749.24      1.1896919      12513.086      22175.262     -2698.2032      393.30721      574.58462      24732.374     -19689.142      5617.817       748.4        
    748600   298.72751      38155.662      18751.986      56907.648     -1244.5751     -713.59688     -2101.2839     -918.8444       0.13951843    -0.051656535    0.14972       -0.064767492   -0.053038537    0.13951843    -0.066960109   -13.136181      134.26293     -13.583944     -3.9728111     -0.65768632    -1.4201602      56.637282      61.661573      58.022305      2              202633.84      1.1844983      12543.631      22394.309     -2721.3648      406.5416       478.96372      24741.004     -19687.423      5532.5449      748.6        
    748800   297.94636      38289.63       18702.951      56992.581     -1053.8952     -101.61993     -2064.8223     -995.24329      0.13955322    -0.047562811    0.14976       -0.062747596   -0.048731118    0.13955322    -0.064802659    21.831244      156.21148     -13.161367     -8.8915386     -1.8171613     -14.870126      56.881769      61.663719      58.14762       2              203955.18      1.1768244      12569.003      22442.431     -2763.6821      406.86994      584.68015      24741.117     -19690.788      5635.0085      748.8        
    749000   295.14383      38220.392      18527.028      56747.42      -1448.4854     -585.9454      -2512.0821     -1247.4285      0.13958801    -0.046813777    0.1498        -0.062273018   -0.047944987    0.13958801    -0.064296436    40.985402      164.73067      42.49373       2.9479791     -19.424504      3.0419179      56.926503      61.665864      58.177063      2              204226.04      1.1752636      12681.839      22175.164     -2649.2372      417.06256      514.50517      24768.445     -19687.387      5595.564       749          
    749200   299.1033       38336.863      18775.575      57112.438     -953.93021     -196.25665     -2144.3328     -521.2012       0.1396228     -0.048633956    0.14984       -0.064041145   -0.049856386    0.1396228     -0.066183761    7.4333712      150.88687      8.1038958      3.241572       6.1739882     -13.295747      56.817798      61.668009      58.067368      2              203458.79      1.1796956      12749.106      22223.18      -2721.9979      399.20542      573.79855      24800.16      -19686.588      5687.3704      749.2        
    749400   298.8518       38099.098      18759.788      56858.885      28.4608        1437.6897     -1028.8009     -323.5064       0.13965759    -0.050259861    0.14988       -0.064719658   -0.05156687     0.13965759    -0.066908964   -10.784349      117.68714     -21.396348     -9.4315978     -2.8107425     -11.432765      56.720695      61.670154      58.025272      2              202970.89      1.1825313      12587.652      22192.023     -2684.4581      402.64833      507.3722       24783.813     -19689.953      5601.2324      749.4        
    749600   297.01043      38156.397      18644.2        56800.596     -1049.6588     -923.45243     -1817.0553     -408.46878      0.13969237    -0.050181895    0.14992       -0.064425475   -0.051484781    0.13969237    -0.066594473    7.0760771      154.81186     -2.554996      -16.362654     -0.65439638     2.7227601      56.725351      61.6723        58.043524      2              203058.47      1.1820213      12335.891      22298.196     -2639.3977      403.77829      634.76547      24815.443     -19692.279      5757.9292      749.6        
    749800   299.83427      38088.531      18821.461      56909.992     -481.64406     -591.6875      -1575.1968      721.95211      0.13972716    -0.050513962    0.14996       -0.063489176   -0.051834454    0.13972716    -0.065594199    5.7661349      156.98925     -1.8061586      12.03315      -6.2230418      4.8997349      56.705519      61.674445      58.101612      2              203197.69      1.1812115      12632.971      22197.728     -2875.9363      394.5064       614.8224       24815.167     -19690.728      5739.2612      749.8        
    750000   294.97485      38050.467      18516.421      56566.887     -739.68891     -37.911818     -1816.8791     -364.27578      0.13976194    -0.05133655     0.15          -0.063029375   -0.05270118     0.13976194    -0.065103347    1.2357174      175.67967      13.240993     -5.5763814     -4.3432986     -17.784951      56.656393      61.67659       58.130138      2              203128.39      1.1816144      12580.303      22272.243     -2735.0113      412.00433      439.93375      24769.763     -19688.769      5520.9282      750          
Loop time of 14471.5 on 16 procs for 750000 steps with 21060 atoms

Performance: 4.478 ns/day, 5.360 hours/ns, 51.826 timesteps/s, 1.091 Matom-step/s
98.8% CPU use with 16 MPI tasks x no OpenMP threads

MPI task timing breakdown:
Section |  min time  |  avg time  |  max time  |%varavg| %total
---------------------------------------------------------------
Pair    | 8497.8     | 8911.7     | 9438.4     | 274.0 | 61.58
Bond    | 1980.1     | 2079.6     | 2182.8     | 112.3 | 14.37
Kspace  | 1255       | 1865.7     | 2341       | 703.2 | 12.89
Neigh   | 866.55     | 866.98     | 867.37     |   1.0 |  5.99
Comm    | 220.24     | 223.87     | 227.4      |  19.3 |  1.55
Output  | 88.305     | 88.306     | 88.313     |   0.0 |  0.61
Modify  | 361.67     | 390.77     | 407.02     |  73.6 |  2.70
Other   |            | 44.57      |            |       |  0.31

Nlocal:        1316.25 ave        1361 max        1268 min
Histogram: 1 1 3 1 2 3 0 1 2 2
Nghost:        13292.2 ave       13352 max       13230 min
Histogram: 2 1 0 5 0 1 2 2 1 2
Neighs:         784522 ave      837312 max      748402 min
Histogram: 4 1 1 1 4 1 1 1 0 2

Total # of neighbors = 12552358
Ave neighs/atom = 596.0284
Ave special neighs/atom = 5.8019943
Neighbor list builds = 36340
Dangerous builds = 0

#-------------------Wrap up-------------------
write_restart  ${myid}.restart
write_restart  tensile_2_EPON_862_pxld_86.8_replicate_4_FF_PCFF.restart
System init for write_restart ...
PPPM initialization ...
  using 12-bit tables for long-range coulomb (../kspace.cpp:342)
  G vector (1/distance) = 0.17986065
  grid = 15 15 15
  stencil order = 5
  estimated absolute RMS force accuracy = 0.023056486
  estimated relative force accuracy = 6.9433922e-05
  using double precision KISS FFT
  3d grid and FFT values/proc = 1690 256
Generated 66 of 66 mixed pair_coeff terms from sixthpower/sixthpower mixing rule
write_data     ${myid}.data
write_data     tensile_2_EPON_862_pxld_86.8_replicate_4_FF_PCFF.data
System init for write_data ...
PPPM initialization ...
  using 12-bit tables for long-range coulomb (../kspace.cpp:342)
  G vector (1/distance) = 0.17986065
  grid = 15 15 15
  stencil order = 5
  estimated absolute RMS force accuracy = 0.023056486
  estimated relative force accuracy = 6.9433922e-05
  using double precision KISS FFT
  3d grid and FFT values/proc = 1690 256
Generated 66 of 66 mixed pair_coeff terms from sixthpower/sixthpower mixing rule
Total wall time: 4:01:12
