HEADER,  ethane-oplsaa.mdf ethane-oplsaa.car  read w/ msi2lmp > all2lmp: v1.12 / 4 November 2023  Class: 0

8 atoms
7 bonds
12 angles
9 dihedrals

2 atom types
2 bond types
2 angle types
1 dihedral types

-5.000000000 5.000000000 xlo xhi
-5.000000000 5.000000000 ylo yhi
-5.000000000 5.000000000 zlo zhi

Masses

1   12.01115000  #  CT   
2    1.00797000  #  HC   

Pair Coeffs  # lj/cut/coul/long

1         0.06599997      3.50000015 #  CT   
2         0.03000026      2.49999820 #  HC   

Bond Coeffs  # harmonic

1       268.00000000      1.52900000 #  CT          CT   
2       340.00000000      1.09000000 #  CT          HC   

Angle Coeffs  # harmonic

1        37.50000000    110.70000000 #  CT         CT         HC   
2        33.00000000    107.80000000 #  HC         CT         HC   

Dihedral Coeffs  # opls

1         0.00000000      0.00000000      0.31800000      0.00000000 #  HC         CT        CT         HC   

Atoms # full

  1     1   1   -0.180000   -0.751635000     0.034150000    -0.000265000      0    0    0 #  CT/C
  2     1   1   -0.180000    0.750945000    -0.034250000     0.000395000      0    0    0 #  CT/C
  3     1   2    0.060000   -1.114995000     0.940300000    -0.502355000      0    0    0 #  HC/H
  4     1   2    0.060000   -1.194215000    -0.825830000    -0.519695000      0    0    0 #  HC/H
  5     1   2    0.060000   -1.156935000     0.042500000     1.019955000      0    0    0 #  HC/H
  6     1   2    0.060000    1.195435000     0.830700000     0.509635000      0    0    0 #  HC/H
  7     1   2    0.060000    1.115335000    -0.934770000     0.512035000      0    0    0 #  HC/H
  8     1   2    0.060000    1.156065000    -0.052800000    -1.019705000      0    0    0 #  HC/H

Bonds

  1   1     1     2  
  2   2     1     3  
  3   2     1     4  
  4   2     1     5  
  5   2     2     6  
  6   2     2     7  
  7   2     2     8  

Angles

  1   2     3     1     4  
  2   2     4     1     5  
  3   1     2     1     3  
  4   2     3     1     5  
  5   1     2     1     5  
  6   1     2     1     4  
  7   1     1     2     7  
  8   2     6     2     7  
  9   1     1     2     6  
 10   2     7     2     8  
 11   2     6     2     8  
 12   1     1     2     8  

Dihedrals

  1   1     4     1     2     8  
  2   1     3     1     2     6  
  3   1     5     1     2     7  
  4   1     4     1     2     7  
  5   1     3     1     2     8  
  6   1     4     1     2     6  
  7   1     5     1     2     6  
  8   1     3     1     2     7  
  9   1     5     1     2     8  
