LAMMPS data file via write_data, version 2 Aug 2023, timestep = 1000, units = real > atom_typing v1.9 / 5 January 2024 w/PCFF-IFF atom-types

31 atoms
31 bonds

3 atom types
1 bond types

-6.24051516449336 5.870934518491596 xlo xhi
-6.98011814988627 5.95582782788461 ylo yhi
-3.415470152094154 3.415863700095053 zlo zhi

Masses

 1   12.00000  #  C    
 2   1.00800   #  H    
 3   14.00000  #  N    

Bond Coeffs

 1  #      1

Atoms # full

  1     1   2   0.202982   -2.733299713    -1.919955612     0.033182770   0  0  0    #     H   Terminal     avg-angle: 125.192091      type: hn
  2     1   3  -0.588632   -1.803882424    -2.261286563     0.000219815   0  0  0    #     N        Sp2     avg-angle: 119.995350      type: nn
  3     1   2   0.216875   -1.229615023    -2.980532301    -0.015353094   0  0  0    #     H   Terminal     avg-angle: 129.184522      type: hn
  4     1   2   0.027223    0.292289706    -3.706897832    -0.946166753   0  0  0    #     H   Terminal     avg-angle: 109.183706      type: hc
  5     1   2   0.027773    0.287321890    -3.703853170     0.943512386   0  0  0    #     H   Terminal     avg-angle: 109.171635      type: hc
  6     1   1  -0.055722    0.909469579    -3.690275574     0.000291822   0  0  0    #     C        Sp3     avg-angle: 109.379089      type: c3
  7     1   1  -0.017719    1.484064432    -2.252795869    -0.000322438   0  0  0    #     C        Sp3     avg-angle: 109.419358      type: c2
  8     1   2   0.018769    1.680852023    -4.502116916     0.003897685   0  0  0    #     H   Terminal     avg-angle: 112.621725      type: hc
  9     1   2   0.015230    2.083206311    -2.074026337    -0.907438117   0  0  0    #     H   Terminal     avg-angle: 108.575648      type: hc
  10    1   2   0.015160    2.082680024    -2.073348618     0.907026136   0  0  0    #     H   Terminal     avg-angle: 108.561769      type: hc
  11    1   2   0.016405   -4.015292468    -0.514282104    -0.015872979   0  0  0    #     H   Terminal     avg-angle: 113.260589      type: hc
  12    1   1  -0.031190   -3.372093831     0.393616399    -0.002834852   0  0  0    #     C        Sp3     avg-angle: 109.072062      type: c3
  13    1   1  -0.053716   -1.819796415     0.228289722     0.000721905   0  0  0    #     C        Sp2     avg-angle: 119.999976      type: cp
  14    1   1   0.188239   -1.038902442    -1.027079135     0.001573566   0  0  0    #     C        Sp2     avg-angle: 119.999897      type: cp
  15    1   1  -0.032865    0.425111725    -1.086672733    -0.000656979   0  0  0    #     C        Sp2     avg-angle: 119.999956      type: cp
  16    1   1  -0.014741    1.049434449     0.149867956    -0.000560331   0  0  0    #     C        Sp2     avg-angle: 119.999999      type: cp
  17    1   2   0.014287    2.154943548    -0.037184225    -0.001445102   0  0  0    #     H   Terminal     avg-angle: 113.957869      type: hc
  18    1   2   0.021397   -3.673463220     1.072629763     0.843954398   0  0  0    #     H   Terminal     avg-angle: 105.266721      type: hc
  19    1   2   0.022086   -3.666194259     1.092926142    -0.835308940   0  0  0    #     H   Terminal     avg-angle: 105.265980      type: hc
  20    1   2   0.189587   -2.563664405     2.589335202     0.012621040   0  0  0    #     H   Terminal     avg-angle: 126.023803      type: hn
  21    1   3  -0.552132   -1.541803903     2.758979547    -0.001763328   0  0  0    #     N        Sp2     avg-angle: 119.989439      type: nn
  22    1   2   0.192158   -0.792433756     3.457469140     0.008097843   0  0  0    #     H   Terminal     avg-angle: 127.166597      type: hn
  23    1   1   0.183264   -0.920055308     1.429543883     0.001399462   0  0  0    #     C        Sp2     avg-angle: 119.999871      type: cp
  24    1   1  -0.025984    0.557107612     1.423989724     0.000053986   0  0  0    #     C        Sp2     avg-angle: 119.999999      type: cp
  25    1   2   0.019987    1.239232305     3.269098809     0.875366664   0  0  0    #     H   Terminal     avg-angle: 109.055682      type: hc
  26    1   2   0.020327    1.239410569     3.268780123    -0.876313273   0  0  0    #     H   Terminal     avg-angle: 109.060875      type: hc
  27    1   1  -0.019379    1.529105154     2.663819971    -0.000348481   0  0  0    #     C        Sp3     avg-angle: 109.310956      type: c2
  28    1   1  -0.050888    2.938006986     2.109219123    -0.000132578   0  0  0    #     C        Sp3     avg-angle: 109.411013      type: c3
  29    1   2   0.017234    3.006318810     1.466666523     0.909144311   0  0  0    #     H   Terminal     avg-angle: 108.822820      type: hc
  30    1   2   0.017327    3.006622071     1.466411875    -0.909221961   0  0  0    #     H   Terminal     avg-angle: 108.825065      type: hc
  31    1   2   0.016659    3.712080587     2.905415641    -0.000104195   0  0  0    #     H   Terminal     avg-angle: 112.058394      type: hc

Bonds

1  1  1  2 
2  1  2  3 
3  1  2  14
4  1  4  6 
5  1  5  6 
6  1  6  7 
7  1  6  8 
8  1  7  9 
9  1  7  10
10 1  7  15
11 1  11 12
12 1  12 13
13 1  12 18
14 1  12 19
15 1  13 14
16 1  13 23
17 1  14 15
18 1  15 16
19 1  16 17
20 1  16 24
21 1  20 21
22 1  21 22
23 1  21 23
24 1  23 24
25 1  24 27
26 1  25 27
27 1  26 27
28 1  27 28
29 1  28 29
30 1  28 30
31 1  28 31
