LAMMPS data file via write_data, version 2 Aug 2023, timestep = 1000, units = real

31 atoms
3 atom types

-6.24051516449336 5.870934518491596 xlo xhi
-6.98011814988627 5.95582782788461 ylo yhi
-3.415470152094154 3.415863700095053 zlo zhi

Masses

1 12
2 1.008
3 14

Atoms # charge

14 1 0.1882392296338608 -1.038902442291671 -1.0270791352117614 0.001573566254505554 0 0 0
2 3 -0.5886323469313862 -1.8038824238247466 -2.261286562704292 0.00021981514066782282 0 0 0
11 2 0.01640466035918418 -4.015292468287971 -0.5142821037834793 -0.01587297915059871 0 0 0
3 2 0.2168752193097348 -1.2296150227245892 -2.980532301070707 -0.015353094124995081 0 0 0
1 2 0.2029822174598885 -2.7332997129723857 -1.9199556124599804 0.03318277044558915 0 0 0
15 1 -0.03286498675837749 0.42511172499396643 -1.0866727331233443 -0.0006569789871773146 0 0 0
7 1 -0.01771863067168418 1.4840644318793563 -2.252795869089339 -0.00032243777390972284 0 0 0
6 1 -0.0557222325359553 0.9094695787861573 -3.6902755737146733 0.00029182166097596607 0 0 0
9 2 0.01523023809420514 2.083206311273784 -2.0740263369903484 -0.9074381172815653 0 0 0
10 2 0.01516007777998701 2.0826800241687806 -2.0733486179710825 0.9070261361860128 0 0 0
8 2 0.01876864815348311 1.6808520234351745 -4.502116915796047 0.0038976854042029885 0 0 0
5 2 0.02777268710912206 0.2873218902266679 -3.703853170290709 0.9435123862760841 0 0 0
4 2 0.02722344057490948 0.29228970619138117 -3.70689783227438 -0.9461667526875104 0 0 0
13 1 -0.05371556870983779 -1.8197964153772386 0.22828972202634912 0.0007219046683593078 0 0 0
23 1 0.183263739117289 -0.9200553082589504 1.4295438833984786 0.0013994621971020749 0 0 0
12 1 -0.03119049905955096 -3.3720938307537844 0.39361639851431907 -0.0028348521510555003 0 0 0
21 3 -0.552132485887135 -1.5418039031001172 2.758979546601612 -0.0017633278229567395 0 0 0
18 2 0.02139668601000655 -3.673463220264838 1.0726297626328698 0.8439543984881483 0 0 0
19 2 0.02208590158169944 -3.6661942590536616 1.092926141734143 -0.835308940034106 0 0 0
20 2 0.1895869643589505 -2.563664404734476 2.5893352024252803 0.01262103962718264 0 0 0
22 2 0.1921579148293391 -0.7924337562935087 3.457469139813453 0.00809784259002777 0 0 0
16 1 -0.01474053503455173 1.049434448891196 0.14986795622031668 -0.0005603308767949677 0 0 0
24 1 -0.02598392486817212 0.5571076118723894 1.4239897239453736 5.398649588972404e-05 0 0 0
27 1 -0.01937912891747055 1.5291051538041405 2.6638199713831323 -0.000348480640551152 0 0 0
28 1 -0.05088817992213278 2.9380069855326454 2.1092191226365795 -0.00013257839418923112 0 0 0
17 2 0.01428718283784749 2.1549435481468855 -0.03718422487998385 -0.0014451024036983284 0 0 0
26 2 0.02032716406362923 1.239410568969146 3.2687801227175015 -0.8763132726877498 0 0 0
25 2 0.01998666282132202 1.2392323045154647 3.2690988087744923 0.8753666641349165 0 0 0
31 2 0.01665866653143319 3.7120805870100497 2.905415640942806 -0.00010419506305581194 0 0 0
29 2 0.01723448714026542 3.006318810373145 1.4666665231656921 0.9091443114473217 0 0 0
30 2 0.01732673153009721 3.006622071316082 1.4664118750508095 -0.9092219614154935 0 0 0

Velocities

14 0.001619147184176893 -0.007699306428578456 -6.514226373650518e-05
2 -0.01133938147672095 -0.007892675284071785 0.00023982865441301272
11 0.0019941018312923343 0.01571071418706544 -0.0009595224547040147
3 0.021913502597903808 0.03770481398098892 -0.00028296767290617475
1 0.04843505621381798 -0.05381267043192408 -0.00020658917786730205
15 0.005563135068885073 -0.0022888598873936224 -1.8301647792400914e-05
7 -0.010465747567152349 -0.011139049231634987 -1.7680036662014936e-05
6 0.0008942213265431127 -0.001615870619693017 1.9123739968201445e-05
9 -0.004884919283704001 -0.004238050911520467 0.027561971541368375
10 -0.004887691735044587 -0.00422071929429715 -0.02757951021795605
8 -0.007335875363304081 -0.0025635243587891826 0.00010303456794106473
5 0.009060677187028302 0.05082859083961839 0.0027521831879438116
4 0.009452645294918072 0.050594985347976386 -0.0031284046052261682
13 0.002165523208006302 -0.004124632268095709 4.3199614323313944e-05
23 -0.012639628861566131 0.010960334368291923 4.0265039931319314e-05
12 0.005314950755709092 -0.00025603265715733447 -0.00010292216873740735
21 -0.006092594071806514 0.005734524044960089 -9.48135381793873e-05
18 -0.002825250597991629 -0.010708200245240447 0.017563371460726125
19 -0.002381849290826382 -0.009335518276120327 -0.01744484744779481
20 0.014017363916742208 0.05929231771935439 0.0007367804580247767
22 -0.018319089261000076 -0.03239423216514721 0.0008103754227026758
16 0.021313694984789147 -0.0013576167800002164 -5.446300867219612e-05
24 -0.005380648579361394 0.010806822511875811 1.8532016719257277e-05
27 0.00461769183312407 -0.00047188452665064773 -6.838775576927213e-06
28 0.004680751283140253 -0.0033876885620433813 -3.141824662940237e-06
17 0.016470644726740855 0.014269893500304163 -8.962287076281617e-05
26 0.001996385288257776 0.007280345637775771 0.006391951419280521
25 0.001973986071682523 0.007306490259435941 -0.006455812807639416
31 -0.014288267189644049 0.020449543070998683 -2.2786193205694046e-06
29 -0.019388851928372017 0.004848638354234553 0.006034836024081046
30 -0.01940478073657552 0.004839287468342553 -0.0060646504385370266
