HEADER,  post.mol2  read w/ mol2SYBYL2lmp > atom_typing v1.11 / 14 April 2025 w/PCFF-IFF atom-types > all2lmp: v1.22 / 14 April 2025  Class: 2

72 atoms
76 bonds
118 angles
174 dihedrals
38 impropers

8 atom types
8 bond types
9 angle types
13 dihedral types
5 improper types

-5.401797222 12.582102778 xlo xhi
-7.593500000 10.017200000 ylo yhi
-6.132104167 4.300895833 zlo zhi

Atom Type Labels

 1  c_0
 2  cp
 3  h 
 4  hc
 5  ho
 6  o_1
 7  oc
 8  oh

Bond Type Labels

 1  c_0-cp
 2  c_0-o_1
 3  cp-cp
 4  cp-hc
 5  cp-oc
 6  cp-oh
 7  h-h
 8  ho-oh

Angle Type Labels

 1  c_0-cp-cp
 2  cp-c_0-cp
 3  cp-c_0-o_1
 4  cp-cp-cp
 5  cp-cp-hc
 6  cp-cp-oc
 7  cp-cp-oh
 8  cp-oc-cp
 9  cp-oh-ho

Dihedral Type Labels

 1  cp-c_0-cp-cp
 2  o_1-c_0-cp-cp
 3  c_0-cp-cp-cp
 4  cp-cp-cp-cp
 5  c_0-cp-cp-hc
 6  hc-cp-cp-hc
 7  cp-cp-cp-hc
 8  hc-cp-cp-oc
 9  cp-cp-cp-oc
10  cp-cp-cp-oh
11  hc-cp-cp-oh
12  cp-cp-oc-cp
13  cp-cp-oh-ho

Improper Type Labels

 1  c_0-cp-cp-cp-nb==3
 2  cp-c_0-cp-o_1-nb==3
 3  cp-cp-cp-hc-nb==3
 4  cp-cp-cp-oc-nb==3
 5  cp-cp-cp-oh-nb==3

Masses

1   12.01115000  #  c_0  
2   12.01115000  #  cp   
3    1.00797000  #  h    
4    1.00797000  #  hc   
5    1.00797000  #  ho   
6   15.99940000  #  o_1  
7   15.99940000  #  oc   
8   15.99940000  #  oh   

Pair Coeffs  # lj/class2/coul/long

1         0.12000000      3.30800000 #  c_0  
2         0.06400000      4.01000000 #  cp   
3         0.02000000      2.30000000 #  h    
4         0.02000000      2.30000000 #  hc   
5         0.01300000      1.09800000 #  ho   
6         0.26700000      3.30000000 #  o_1  
7         0.24000000      3.53500000 #  oc   
8         0.24000000      3.53500000 #  oh   

Bond Coeffs  # class2

1         1.48900000    339.35740000   -655.72360000    670.23620000 #  c_0         cp   
2         1.21600000    823.79480000  -1878.79400000   2303.53110000 #  c_0        o_1   
3         1.41700000    470.83610000   -627.61790000   1327.63450000 #  cp          cp   
4         1.09820000    372.82510000   -803.45260000    894.31730000 #  cp          hc   
5         1.37680000    428.87980000   -738.23510000   1114.96550000 #  cp          oc   
6         1.37680000    428.87980000   -738.23510000   1114.96550000 #  cp          oh   
7         0.74140000    414.00000000      0.00000000      0.00000000 #  h            h   
8         0.96500000    532.50620000  -1282.90500000   2004.76580000 #  ho          oh   

Angle Coeffs  # class2

1       108.40000000     43.95940000     -8.39240000     -9.33790000 #  c_0        cp         cp   
2       110.58840000     34.62140000     -7.09390000     -7.40320000 #  cp        c_0         cp   
3       119.30000000     65.10160000    -17.97660000      0.00000000 #  cp        c_0        o_1   
4       118.90000000     61.02260000    -34.99310000      0.00000000 #  cp         cp         cp   
5       117.94000000     35.15580000    -12.46820000      0.00000000 #  cp         cp         hc   
6       123.42000000     73.67810000    -21.67870000      0.00000000 #  cp         cp         oc   
7       123.42000000     73.67810000    -21.67870000      0.00000000 #  cp         cp         oh   
8       109.50000000     60.00000000      0.00000000      0.00000000 #  cp         oc         cp   
9       108.19000000     53.12500000     -8.50160000      0.00000000 #  cp         oh         ho   

Dihedral Coeffs  # class2

1         0.00000000      0.00000000      2.50000000      0.00000000      0.00000000      0.00000000 #  cp        c_0        cp         cp   
2         0.00000000      0.00000000      0.90630000      0.00000000      0.00000000      0.00000000 #  o_1       c_0        cp         cp   
3         0.00000000      0.00000000      4.62820000      0.00000000      0.00000000      0.00000000 #  c_0        cp        cp         cp   
4         8.36670000      0.00000000      1.19320000      0.00000000      0.00000000      0.00000000 #  cp         cp        cp         cp   
5         0.00000000      0.00000000      2.16700000      0.00000000      0.00000000      0.00000000 #  c_0        cp        cp         hc   
6         0.00000000      0.00000000      1.87690000      0.00000000      0.00000000      0.00000000 #  hc         cp        cp         hc   
7         0.00000000      0.00000000      3.96610000      0.00000000      0.00000000      0.00000000 #  cp         cp        cp         hc   
8         0.00000000      0.00000000      1.72340000      0.00000000      0.00000000      0.00000000 #  hc         cp        cp         oc   
9         0.00000000      0.00000000      4.84980000      0.00000000      0.00000000      0.00000000 #  cp         cp        cp         oc   
10        0.00000000      0.00000000      4.84980000      0.00000000      0.00000000      0.00000000 #  cp         cp        cp         oh   
11        0.00000000      0.00000000      1.72340000      0.00000000      0.00000000      0.00000000 #  hc         cp        cp         oh   
12        0.00000000      0.00000000      1.80000000      0.00000000      0.00000000      0.00000000 #  cp         cp        oc         cp   
13       -0.69000000      0.00000000      0.50970000      0.00000000      0.00950000      0.00000000 #  cp         cp        oh         ho   

Improper Coeffs  # class2

1        10.00000000      0.00000000 #  c_0        cp        cp        cp      nb==3   
2        38.79490000      0.00000000 #  cp        c_0        cp       o_1      nb==3   
3         4.89120000      0.00000000 #  cp         cp        cp        hc      nb==3   
4        13.04210000      0.00000000 #  cp         cp        cp        oc      nb==3   
5        13.04210000      0.00000000 #  cp         cp        cp        oh      nb==3   

BondBond Coeffs  # class2

1         0.00000000      1.48900000      1.41700000 #  c_0        cp         cp   
2         0.00000000      1.48900000      1.48900000 #  cp        c_0         cp   
3         0.00000000      1.48900000      1.21600000 #  cp        c_0        o_1   
4        68.28560000      1.41700000      1.41700000 #  cp         cp         cp   
5         1.07950000      1.41700000      1.09820000 #  cp         cp         hc   
6        48.47540000      1.41700000      1.37680000 #  cp         cp         oc   
7        48.47540000      1.41700000      1.37680000 #  cp         cp         oh   
8         0.00000000      1.37680000      1.37680000 #  cp         oc         cp   
9        20.65770000      1.37680000      0.96500000 #  cp         oh         ho   

BondAngle Coeffs  # class2

1         0.00000000      0.00000000      1.48900000      1.41700000 #  c_0        cp         cp   
2         0.00000000      0.00000000      1.48900000      1.48900000 #  cp        c_0         cp   
3         0.00000000      0.00000000      1.48900000      1.21600000 #  cp        c_0        o_1   
4        28.87080000     28.87080000      1.41700000      1.41700000 #  cp         cp         cp   
5        20.00330000     24.21830000      1.41700000      1.09820000 #  cp         cp         hc   
6        58.47900000    107.68060000      1.41700000      1.37680000 #  cp         cp         oc   
7        58.47900000    107.68060000      1.41700000      1.37680000 #  cp         cp         oh   
8         0.00000000      0.00000000      1.37680000      1.37680000 #  cp         oc         cp   
9        53.86140000     23.92240000      1.37680000      0.96500000 #  cp         oh         ho   

AngleAngleTorsion Coeffs  # class2

1         0.00000000    110.58840000    108.40000000 #  cp        c_0        cp         cp   
2         0.00000000    119.30000000    108.40000000 #  o_1       c_0        cp         cp   
3         0.00000000    108.40000000    118.90000000 #  c_0        cp        cp         cp   
4         0.00000000    118.90000000    118.90000000 #  cp         cp        cp         cp   
5         0.00000000    108.40000000    117.94000000 #  c_0        cp        cp         hc   
6         0.35980000    117.94000000    117.94000000 #  hc         cp        cp         hc   
7        -4.81410000    118.90000000    117.94000000 #  cp         cp        cp         hc   
8         4.22960000    117.94000000    123.42000000 #  hc         cp        cp         oc   
9       -21.02470000    118.90000000    123.42000000 #  cp         cp        cp         oc   
10      -21.02470000    118.90000000    123.42000000 #  cp         cp        cp         oh   
11        4.22960000    117.94000000    123.42000000 #  hc         cp        cp         oh   
12        0.00000000    123.42000000    109.50000000 #  cp         cp        oc         cp   
13       -4.60720000    123.42000000    108.19000000 #  cp         cp        oh         ho   

EndBondTorsion Coeffs  # class2

1         0.00000000      0.00000000      0.00000000      0.00000000      0.00000000      0.00000000      1.48900000      1.41700000 #  cp        c_0        cp         cp   
2         0.00000000      0.00000000      0.00000000      0.00000000      0.00000000      0.00000000      1.21600000      1.41700000 #  o_1       c_0        cp         cp   
3         0.00000000      0.00000000      0.00000000      0.00000000      0.00000000      0.00000000      1.48900000      1.41700000 #  c_0        cp        cp         cp   
4        -0.11850000      6.32040000      0.00000000     -0.11850000      6.32040000      0.00000000      1.41700000      1.41700000 #  cp         cp        cp         cp   
5         0.00000000      0.00000000      0.00000000      0.00000000      0.00000000      0.00000000      1.48900000      1.09820000 #  c_0        cp        cp         hc   
6         0.00000000     -0.68900000      0.00000000      0.00000000     -0.68900000      0.00000000      1.09820000      1.09820000 #  hc         cp        cp         hc   
7         0.00000000     -6.89580000      0.00000000      0.00000000     -0.46690000      0.00000000      1.41700000      1.09820000 #  cp         cp        cp         hc   
8         0.00000000     -1.58670000      0.00000000      0.00000000      4.26410000      0.00000000      1.09820000      1.37680000 #  hc         cp        cp         oc   
9         0.00000000      0.26550000      0.00000000      0.00000000      4.89050000      0.00000000      1.41700000      1.37680000 #  cp         cp        cp         oc   
10        0.00000000      0.26550000      0.00000000      0.00000000      4.89050000      0.00000000      1.41700000      1.37680000 #  cp         cp        cp         oh   
11        0.00000000     -1.58670000      0.00000000      0.00000000      4.26410000      0.00000000      1.09820000      1.37680000 #  hc         cp        cp         oh   
12        0.00000000      0.00000000      0.00000000      0.00000000      0.00000000      0.00000000      1.41700000      1.37680000 #  cp         cp        oc         cp   
13        0.90000000     -1.34560000      1.19000000      3.41320000      0.58730000     -0.13230000      1.41700000      0.96500000 #  cp         cp        oh         ho   

MiddleBondTorsion Coeffs  # class2

1         0.00000000      0.00000000      0.00000000      1.48900000 #  cp        c_0        cp         cp   
2         0.00000000      0.00000000      0.00000000      1.48900000 #  o_1       c_0        cp         cp   
3         0.00000000      0.00000000      0.00000000      1.41700000 #  c_0        cp        cp         cp   
4        27.59890000     -2.31200000      0.00000000      1.41700000 #  cp         cp        cp         cp   
5         0.00000000      0.00000000      0.00000000      1.41700000 #  c_0        cp        cp         hc   
6         0.00000000      4.82280000      0.00000000      1.41700000 #  hc         cp        cp         hc   
7         0.00000000     -1.15210000      0.00000000      1.41700000 #  cp         cp        cp         hc   
8         0.00000000      5.54320000      0.00000000      1.41700000 #  hc         cp        cp         oc   
9         0.00000000      4.82550000      0.00000000      1.41700000 #  cp         cp        cp         oc   
10        0.00000000      4.82550000      0.00000000      1.41700000 #  cp         cp        cp         oh   
11        0.00000000      5.54320000      0.00000000      1.41700000 #  hc         cp        cp         oh   
12        0.00000000      0.00000000      0.00000000      1.37680000 #  cp         cp        oc         cp   
13        1.15800000      3.26970000      3.51320000      1.37680000 #  cp         cp        oh         ho   

BondBond13 Coeffs  # class2

1         0.00000000      1.48900000      1.41700000 #  cp        c_0        cp         cp   
2         0.00000000      1.21600000      1.41700000 #  o_1       c_0        cp         cp   
3         0.00000000      1.48900000      1.41700000 #  c_0        cp        cp         cp   
4        53.00000000      1.41700000      1.41700000 #  cp         cp        cp         cp   
5         0.00000000      1.48900000      1.09820000 #  c_0        cp        cp         hc   
6        -1.70770000      1.09820000      1.09820000 #  hc         cp        cp         hc   
7        -6.27410000      1.41700000      1.09820000 #  cp         cp        cp         hc   
8         2.05170000      1.09820000      1.37680000 #  hc         cp        cp         oc   
9        -2.24360000      1.41700000      1.37680000 #  cp         cp        cp         oc   
10       -2.24360000      1.41700000      1.37680000 #  cp         cp        cp         oh   
11        2.05170000      1.09820000      1.37680000 #  hc         cp        cp         oh   
12        0.00000000      1.41700000      1.37680000 #  cp         cp        oc         cp   
13        1.15900000      1.41700000      0.96500000 #  cp         cp        oh         ho   

AngleTorsion Coeffs  # class2

1         0.00000000      0.00000000      0.00000000      0.00000000      0.00000000      0.00000000    110.58840000    108.40000000 #  cp        c_0        cp         cp   
2         0.00000000      0.00000000      0.00000000      0.00000000      0.00000000      0.00000000    119.30000000    108.40000000 #  o_1       c_0        cp         cp   
3         0.00000000      0.00000000      0.00000000      0.00000000      0.00000000      0.00000000    108.40000000    118.90000000 #  c_0        cp        cp         cp   
4         1.97670000      1.02390000      0.00000000      1.97670000      1.02390000      0.00000000    118.90000000    118.90000000 #  cp         cp        cp         cp   
5         0.00000000      0.00000000      0.00000000      0.00000000      0.00000000      0.00000000    108.40000000    117.94000000 #  c_0        cp        cp         hc   
6         0.00000000      2.45010000      0.00000000      0.00000000      2.45010000      0.00000000    117.94000000    117.94000000 #  hc         cp        cp         hc   
7         0.00000000      2.50140000      0.00000000      0.00000000      2.71470000      0.00000000    118.90000000    117.94000000 #  cp         cp        cp         hc   
8         0.00000000      1.87290000      0.00000000      0.00000000      2.57060000      0.00000000    117.94000000    123.42000000 #  hc         cp        cp         oc   
9         0.00000000     10.01550000      0.00000000      0.00000000      1.74040000      0.00000000    118.90000000    123.42000000 #  cp         cp        cp         oc   
10        0.00000000     10.01550000      0.00000000      0.00000000      1.74040000      0.00000000    118.90000000    123.42000000 #  cp         cp        cp         oh   
11        0.00000000      1.87290000      0.00000000      0.00000000      2.57060000      0.00000000    117.94000000    123.42000000 #  hc         cp        cp         oh   
12        0.00000000      0.00000000      0.00000000      0.00000000      0.00000000      0.00000000    123.42000000    109.50000000 #  cp         cp        oc         cp   
13       -5.13600000     -1.01220000      0.00000000      4.68520000      0.02300000     -0.59800000    123.42000000    108.19000000 #  cp         cp        oh         ho   

AngleAngle Coeffs  # class2

1         0.00000000      0.00000000      0.00000000    108.40000000    118.90000000    108.40000000 #  c_0        cp        cp        cp      nb==3   
2         0.00000000      0.00000000      0.00000000    110.58840000    119.30000000    119.30000000 #  cp        c_0        cp       o_1      nb==3   
3         0.00000000      0.00000000      0.00000000    118.90000000    117.94000000    117.94000000 #  cp         cp        cp        hc      nb==3   
4         0.00000000      0.00000000      0.00000000    118.90000000    123.42000000    123.42000000 #  cp         cp        cp        oc      nb==3   
5         0.00000000      0.00000000      0.00000000    118.90000000    123.42000000    123.42000000 #  cp         cp        cp        oh      nb==3   

Atoms # full

  1     1   2    0.026500   -2.977797222    -3.901300000     1.745895833      0    0    0 #  cp/C
  2     1   2   -0.126800   -2.977897222    -5.296100000     1.745895833      0    0    0 #  cp/C
  3     1   2   -0.126800   -1.769897222    -5.993500000     1.745995833      0    0    0 #  cp/C
  4     1   2   -0.126800   -0.561897222    -3.901300000     1.745895833      0    0    0 #  cp/C
  5     1   2   -0.126800   -1.769897222    -3.203900000     1.745895833      0    0    0 #  cp/C
  6     1   2    0.026500    1.679302778    -5.139400000     1.745995833      0    0    0 #  cp/C
  7     1   2   -0.126800    2.458602778    -5.004200000     0.597195833      0    0    0 #  cp/C
  8     1   2   -0.126800    3.557902778    -4.145600000     0.597195833      0    0    0 #  cp/C
  9     1   2    0.000000    3.877602778    -3.422100000     1.746095833      0    0    0 #  cp/C
  10    1   2   -0.126800    3.098302778    -3.557200000     2.894895833      0    0    0 #  cp/C
  11    1   2   -0.126800    1.999102778    -4.416000000     2.894895833      0    0    0 #  cp/C
  12    1   2   -0.126800    5.097802778    -2.124500000    -0.580704167      0    0    0 #  cp/C
  13    1   2   -0.126800    5.877102778    -1.989300000    -1.729504167      0    0    0 #  cp/C
  14    1   2   -0.126800    7.256002778    -2.189300000    -1.664304167      0    0    0 #  cp/C
  15    1   2   -0.126800    7.855502778    -2.524300000    -0.450204167      0    0    0 #  cp/C
  16    1   2   -0.126800    7.076202778    -2.659400000     0.698595833      0    0    0 #  cp/C
  17    1   1    0.396400    4.942302778    -2.590400000     1.746095833      0    0    0 #  c_0/C
  18    1   2    0.000000    5.697202778    -2.459500000     0.633395833      0    0    0 #  cp/C
  19    1   7   -0.053000    0.611502778    -5.973600000     1.745995833      0    0    0 #  oc/O
  20    1   2    0.026500   -0.561897222    -5.296100000     1.745995833      0    0    0 #  cp/C
  21    1   6   -0.396400    5.219302778    -1.963800000     2.741095833      0    0    0 #  o_1/O
  22    1   2    0.026500   -4.075297222     7.785300000    -3.996504167      0    0    0 #  cp/C
  23    1   2   -0.126800   -4.007897222     6.601200000    -4.730504167      0    0    0 #  cp/C
  24    1   2   -0.126800   -3.157097222     5.574400000    -4.321204167      0    0    0 #  cp/C
  25    1   2   -0.126800   -2.440897222     6.916100000    -2.444004167      0    0    0 #  cp/C
  26    1   2   -0.126800   -3.291797222     7.942900000    -2.853304167      0    0    0 #  cp/C
  27    1   2    0.026500   -2.000497222     4.114200000    -1.664304167      0    0    0 #  cp/C
  28    1   2   -0.126800   -1.275897222     3.059300000    -1.109604167      0    0    0 #  cp/C
  29    1   2   -0.126800   -1.742697222     2.420700000     0.039295833      0    0    0 #  cp/C
  30    1   2    0.000000   -2.933997222     2.836900000     0.633295833      0    0    0 #  cp/C
  31    1   2   -0.126800   -3.658597222     3.891800000     0.078695833      0    0    0 #  cp/C
  32    1   2   -0.126800   -3.191797222     4.530400000    -1.070204167      0    0    0 #  cp/C
  33    1   2   -0.126800   -4.040997222     0.241800000     2.894795833      0    0    0 #  cp/C
  34    1   2   -0.126800   -4.235297222    -1.139400000     2.894795833      0    0    0 #  cp/C
  35    1   2    0.026500   -3.962697222    -1.882000000     1.745895833      0    0    0 #  cp/C
  36    1   2   -0.126800   -3.495897222    -1.243300000     0.597195833      0    0    0 #  cp/C
  37    1   2   -0.126800   -3.301697222     0.137900000     0.597095833      0    0    0 #  cp/C
  38    1   1    0.396400   -3.386097222     2.218300000     1.746095833      0    0    0 #  c_0/C
  39    1   2    0.000000   -3.574297222     0.880500000     1.745995833      0    0    0 #  cp/C
  40    1   7   -0.053000   -1.547097222     4.734600000    -2.780404167      0    0    0 #  oc/O
  41    1   2    0.026500   -2.373597222     5.732000000    -3.178004167      0    0    0 #  cp/C
  42    1   8   -0.450600   -4.901797222     8.782700000    -4.394104167      0    0    0 #  oh/O
  43    1   6   -0.396400   -3.622197222     2.861400000     2.740995833      0    0    0 #  o_1/O
  44    1   7   -0.053000   -4.151297222    -3.223800000     1.745895833      0    0    0 #  oc/O
  45    1   4    0.126800   -3.930497222    -5.846100000     1.745795833      0    0    0 #  hc/H
  46    1   4    0.126800   -1.769797222    -7.093500000     1.745995833      0    0    0 #  hc/H
  47    1   4    0.126800    0.390802778    -3.351300000     1.745795833      0    0    0 #  hc/H
  48    1   4    0.126800   -1.769897222    -2.103900000     1.745895833      0    0    0 #  hc/H
  49    1   4    0.126800    2.206402778    -5.574700000    -0.308904167      0    0    0 #  hc/H
  50    1   4    0.126800    4.172602778    -4.039000000    -0.308704167      0    0    0 #  hc/H
  51    1   4    0.126800    3.350402778    -2.986600000     3.800895833      0    0    0 #  hc/H
  52    1   4    0.126800    1.384402778    -4.522600000     3.800895833      0    0    0 #  hc/H
  53    1   4    0.126800    4.010302778    -1.966900000    -0.632104167      0    0    0 #  hc/H
  54    1   4    0.126800    5.404302778    -1.725000000    -2.686904167      0    0    0 #  hc/H
  55    1   4    0.126800    7.870702778    -2.082700000    -2.570304167      0    0    0 #  hc/H
  56    1   4    0.126800    8.942902778    -2.682000000    -0.398804167      0    0    0 #  hc/H
  57    1   4    0.126800    7.549002778    -2.923600000     1.655995833      0    0    0 #  hc/H
  58    1   4    0.126800   -4.625697222     6.477000000    -5.632104167      0    0    0 #  hc/H
  59    1   4    0.126800   -3.103897222     4.640500000    -4.899904167      0    0    0 #  hc/H
  60    1   4    0.126800   -1.822997222     7.040400000    -1.542504167      0    0    0 #  hc/H
  61    1   4    0.126800   -3.344997222     8.876800000    -2.274504167      0    0    0 #  hc/H
  62    1   4    0.126800   -0.336297222     2.731100000    -1.578104167      0    0    0 #  hc/H
  63    1   4    0.126800   -1.171297222     1.588700000     0.476695833      0    0    0 #  hc/H
  64    1   4    0.126800   -4.598097222     4.220100000     0.547295833      0    0    0 #  hc/H
  65    1   4    0.126800   -3.763297222     5.362400000    -1.507704167      0    0    0 #  hc/H
  66    1   4    0.126800   -4.255897222     0.827400000     3.800795833      0    0    0 #  hc/H
  67    1   4    0.126800   -4.603497222    -1.643000000     3.800795833      0    0    0 #  hc/H
  68    1   4    0.126800   -3.280897222    -1.828900000    -0.308804167      0    0    0 #  hc/H
  69    1   4    0.126800   -2.933697222     0.641500000    -0.308904167      0    0    0 #  hc/H
  70    1   5    0.424100   -4.811097222     9.517200000    -3.764004167      0    0    0 #  ho/H
  71    2   3    0.000000   12.082102778     1.344400000    -2.577904167      0    0    0 #  h/H
  72    2   3    0.000000   11.442902778     1.079200000    -2.576904167      0    0    0 #  h/H

Bonds

  1   3     1     2  
  2   3     1     5  
  3   5     1    44  
  4   3     2     3  
  5   4     2    45  
  6   3     3    20  
  7   4     3    46  
  8   3     4     5  
  9   3     4    20  
 10   4     4    47  
 11   4     5    48  
 12   3     6     7  
 13   3     6    11  
 14   5     6    19  
 15   3     7     8  
 16   4     7    49  
 17   3     8     9  
 18   4     8    50  
 19   3     9    10  
 20   1    17     9  
 21   3    10    11  
 22   4    10    51  
 23   4    11    52  
 24   3    12    13  
 25   3    12    18  
 26   4    12    53  
 27   3    13    14  
 28   4    13    54  
 29   3    14    15  
 30   4    14    55  
 31   3    15    16  
 32   4    15    56  
 33   3    16    18  
 34   4    16    57  
 35   1    17    18  
 36   2    17    21  
 37   5    20    19  
 38   3    22    23  
 39   3    22    26  
 40   6    22    42  
 41   3    23    24  
 42   4    23    58  
 43   3    24    41  
 44   4    24    59  
 45   3    25    26  
 46   3    25    41  
 47   4    25    60  
 48   4    26    61  
 49   3    27    28  
 50   3    27    32  
 51   5    27    40  
 52   3    28    29  
 53   4    28    62  
 54   3    29    30  
 55   4    29    63  
 56   3    30    31  
 57   1    38    30  
 58   3    31    32  
 59   4    31    64  
 60   4    32    65  
 61   3    33    34  
 62   3    33    39  
 63   4    33    66  
 64   3    34    35  
 65   4    34    67  
 66   3    35    36  
 67   5    35    44  
 68   3    36    37  
 69   4    36    68  
 70   3    37    39  
 71   4    37    69  
 72   1    38    39  
 73   2    38    43  
 74   5    41    40  
 75   8    70    42  
 76   7    71    72  

Angles

  1   6     5     1    44  
  2   6     2     1    44  
  3   4     2     1     5  
  4   5     1     2    45  
  5   4     1     2     3  
  6   5     3     2    45  
  7   4     2     3    20  
  8   5    20     3    46  
  9   5     2     3    46  
 10   4     5     4    20  
 11   5     5     4    47  
 12   5    20     4    47  
 13   5     1     5    48  
 14   4     1     5     4  
 15   5     4     5    48  
 16   4     7     6    11  
 17   6     7     6    19  
 18   6    11     6    19  
 19   4     6     7     8  
 20   5     8     7    49  
 21   5     6     7    49  
 22   4     7     8     9  
 23   5     9     8    50  
 24   5     7     8    50  
 25   1    17     9    10  
 26   1    17     9     8  
 27   4     8     9    10  
 28   5     9    10    51  
 29   4     9    10    11  
 30   5    11    10    51  
 31   5     6    11    52  
 32   4     6    11    10  
 33   5    10    11    52  
 34   4    13    12    18  
 35   5    18    12    53  
 36   5    13    12    53  
 37   4    12    13    14  
 38   5    14    13    54  
 39   5    12    13    54  
 40   4    13    14    15  
 41   5    15    14    55  
 42   5    13    14    55  
 43   5    16    15    56  
 44   5    14    15    56  
 45   4    14    15    16  
 46   5    18    16    57  
 47   4    15    16    18  
 48   5    15    16    57  
 49   3     9    17    21  
 50   2     9    17    18  
 51   3    18    17    21  
 52   1    17    18    12  
 53   4    12    18    16  
 54   1    17    18    16  
 55   8     6    19    20  
 56   4     3    20     4  
 57   6     3    20    19  
 58   6     4    20    19  
 59   4    23    22    26  
 60   7    23    22    42  
 61   7    26    22    42  
 62   5    24    23    58  
 63   5    22    23    58  
 64   4    22    23    24  
 65   5    23    24    59  
 66   4    23    24    41  
 67   5    41    24    59  
 68   4    26    25    41  
 69   5    26    25    60  
 70   5    41    25    60  
 71   5    22    26    61  
 72   5    25    26    61  
 73   4    22    26    25  
 74   6    28    27    40  
 75   4    28    27    32  
 76   6    32    27    40  
 77   5    29    28    62  
 78   5    27    28    62  
 79   4    27    28    29  
 80   5    28    29    63  
 81   4    28    29    30  
 82   5    30    29    63  
 83   1    38    30    31  
 84   1    38    30    29  
 85   4    29    30    31  
 86   5    32    31    64  
 87   5    30    31    64  
 88   4    30    31    32  
 89   4    27    32    31  
 90   5    27    32    65  
 91   5    31    32    65  
 92   4    34    33    39  
 93   5    39    33    66  
 94   5    34    33    66  
 95   5    33    34    67  
 96   4    33    34    35  
 97   5    35    34    67  
 98   6    36    35    44  
 99   4    34    35    36  
 100  6    34    35    44  
 101  5    35    36    68  
 102  4    35    36    37  
 103  5    37    36    68  
 104  4    36    37    39  
 105  5    36    37    69  
 106  5    39    37    69  
 107  2    30    38    39  
 108  3    30    38    43  
 109  3    39    38    43  
 110  1    38    39    33  
 111  1    38    39    37  
 112  4    33    39    37  
 113  8    27    40    41  
 114  6    25    41    40  
 115  6    24    41    40  
 116  4    24    41    25  
 117  9    22    42    70  
 118  8     1    44    35  

Dihedrals

  1   12    2     1    44    35  
  2   8    45     2     1    44  
  3   7     2     1     5    48  
  4   7     5     1     2    45  
  5   12    5     1    44    35  
  6   8    48     5     1    44  
  7   4     2     1     5     4  
  8   4     3     2     1     5  
  9   9     3     2     1    44  
 10   4     1     2     3    20  
 11   6    45     2     3    46  
 12   7     1     2     3    46  
 13   9     2     3    20    19  
 14   7    20     3     2    45  
 15   4     2     3    20     4  
 16   7    20     4     5    48  
 17   9     5     4    20    19  