HEADER,  pre.mol2  read w/ mol2SYBYL2lmp > atom_typing v1.11 / 14 April 2025 w/PCFF-IFF atom-types > all2lmp: v1.22 / 14 April 2025  Class: 2

72 atoms
76 bonds
118 angles
172 dihedrals
38 impropers

7 atom types
7 bond types
9 angle types
13 dihedral types
5 improper types

-14.820497222 14.867902778 xlo xhi
-3.978400000 2.390200000 ylo yhi
-4.212497222 3.275302778 zlo zhi

Atom Type Labels

 1  c_0
 2  cp
 3  hc
 4  ho
 5  o_1
 6  oc
 7  oh

Bond Type Labels

 1  c_0-cp
 2  c_0-o_1
 3  cp-cp
 4  cp-hc
 5  cp-oc
 6  cp-oh
 7  ho-oh

Angle Type Labels

 1  c_0-cp-cp
 2  cp-c_0-cp
 3  cp-c_0-o_1
 4  cp-cp-cp
 5  cp-cp-hc
 6  cp-cp-oc
 7  cp-cp-oh
 8  cp-oc-cp
 9  cp-oh-ho

Dihedral Type Labels

 1  cp-c_0-cp-cp
 2  o_1-c_0-cp-cp
 3  c_0-cp-cp-cp
 4  cp-cp-cp-cp
 5  c_0-cp-cp-hc
 6  hc-cp-cp-hc
 7  cp-cp-cp-hc
 8  hc-cp-cp-oc
 9  cp-cp-cp-oc
10  cp-cp-cp-oh
11  hc-cp-cp-oh
12  cp-cp-oc-cp
13  cp-cp-oh-ho

Improper Type Labels

 1  c_0-cp-cp-cp-nb==3
 2  cp-c_0-cp-o_1-nb==3
 3  cp-cp-cp-hc-nb==3
 4  cp-cp-cp-oc-nb==3
 5  cp-cp-cp-oh-nb==3

Masses

1   12.01115000  #  c_0  
2   12.01115000  #  cp   
3    1.00797000  #  hc   
4    1.00797000  #  ho   
5   15.99940000  #  o_1  
6   15.99940000  #  oc   
7   15.99940000  #  oh   

Pair Coeffs  # lj/class2/coul/long

1         0.12000000      3.30800000 #  c_0  
2         0.06400000      4.01000000 #  cp   
3         0.02000000      2.30000000 #  hc   
4         0.01300000      1.09800000 #  ho   
5         0.26700000      3.30000000 #  o_1  
6         0.24000000      3.53500000 #  oc   
7         0.24000000      3.53500000 #  oh   

Bond Coeffs  # class2

1         1.48900000    339.35740000   -655.72360000    670.23620000 #  c_0         cp   
2         1.21600000    823.79480000  -1878.79400000   2303.53110000 #  c_0        o_1   
3         1.41700000    470.83610000   -627.61790000   1327.63450000 #  cp          cp   
4         1.09820000    372.82510000   -803.45260000    894.31730000 #  cp          hc   
5         1.37680000    428.87980000   -738.23510000   1114.96550000 #  cp          oc   
6         1.37680000    428.87980000   -738.23510000   1114.96550000 #  cp          oh   
7         0.96500000    532.50620000  -1282.90500000   2004.76580000 #  ho          oh   

Angle Coeffs  # class2

1       108.40000000     43.95940000     -8.39240000     -9.33790000 #  c_0        cp         cp   
2       110.58840000     34.62140000     -7.09390000     -7.40320000 #  cp        c_0         cp   
3       119.30000000     65.10160000    -17.97660000      0.00000000 #  cp        c_0        o_1   
4       118.90000000     61.02260000    -34.99310000      0.00000000 #  cp         cp         cp   
5       117.94000000     35.15580000    -12.46820000      0.00000000 #  cp         cp         hc   
6       123.42000000     73.67810000    -21.67870000      0.00000000 #  cp         cp         oc   
7       123.42000000     73.67810000    -21.67870000      0.00000000 #  cp         cp         oh   
8       109.50000000     60.00000000      0.00000000      0.00000000 #  cp         oc         cp   
9       108.19000000     53.12500000     -8.50160000      0.00000000 #  cp         oh         ho   

Dihedral Coeffs  # class2

1         0.00000000      0.00000000      2.50000000      0.00000000      0.00000000      0.00000000 #  cp        c_0        cp         cp   
2         0.00000000      0.00000000      0.90630000      0.00000000      0.00000000      0.00000000 #  o_1       c_0        cp         cp   
3         0.00000000      0.00000000      4.62820000      0.00000000      0.00000000      0.00000000 #  c_0        cp        cp         cp   
4         8.36670000      0.00000000      1.19320000      0.00000000      0.00000000      0.00000000 #  cp         cp        cp         cp   
5         0.00000000      0.00000000      2.16700000      0.00000000      0.00000000      0.00000000 #  c_0        cp        cp         hc   
6         0.00000000      0.00000000      1.87690000      0.00000000      0.00000000      0.00000000 #  hc         cp        cp         hc   
7         0.00000000      0.00000000      3.96610000      0.00000000      0.00000000      0.00000000 #  cp         cp        cp         hc   
8         0.00000000      0.00000000      1.72340000      0.00000000      0.00000000      0.00000000 #  hc         cp        cp         oc   
9         0.00000000      0.00000000      4.84980000      0.00000000      0.00000000      0.00000000 #  cp         cp        cp         oc   
10        0.00000000      0.00000000      4.84980000      0.00000000      0.00000000      0.00000000 #  cp         cp        cp         oh   
11        0.00000000      0.00000000      1.72340000      0.00000000      0.00000000      0.00000000 #  hc         cp        cp         oh   
12        0.00000000      0.00000000      1.80000000      0.00000000      0.00000000      0.00000000 #  cp         cp        oc         cp   
13       -0.69000000      0.00000000      0.50970000      0.00000000      0.00950000      0.00000000 #  cp         cp        oh         ho   

Improper Coeffs  # class2

1        10.00000000      0.00000000 #  c_0        cp        cp        cp      nb==3   
2        38.79490000      0.00000000 #  cp        c_0        cp       o_1      nb==3   
3         4.89120000      0.00000000 #  cp         cp        cp        hc      nb==3   
4        13.04210000      0.00000000 #  cp         cp        cp        oc      nb==3   
5        13.04210000      0.00000000 #  cp         cp        cp        oh      nb==3   

BondBond Coeffs  # class2

1         0.00000000      1.48900000      1.41700000 #  c_0        cp         cp   
2         0.00000000      1.48900000      1.48900000 #  cp        c_0         cp   
3         0.00000000      1.48900000      1.21600000 #  cp        c_0        o_1   
4        68.28560000      1.41700000      1.41700000 #  cp         cp         cp   
5         1.07950000      1.41700000      1.09820000 #  cp         cp         hc   
6        48.47540000      1.41700000      1.37680000 #  cp         cp         oc   
7        48.47540000      1.41700000      1.37680000 #  cp         cp         oh   
8         0.00000000      1.37680000      1.37680000 #  cp         oc         cp   
9        20.65770000      1.37680000      0.96500000 #  cp         oh         ho   

BondAngle Coeffs  # class2

1         0.00000000      0.00000000      1.48900000      1.41700000 #  c_0        cp         cp   
2         0.00000000      0.00000000      1.48900000      1.48900000 #  cp        c_0         cp   
3         0.00000000      0.00000000      1.48900000      1.21600000 #  cp        c_0        o_1   
4        28.87080000     28.87080000      1.41700000      1.41700000 #  cp         cp         cp   
5        20.00330000     24.21830000      1.41700000      1.09820000 #  cp         cp         hc   
6        58.47900000    107.68060000      1.41700000      1.37680000 #  cp         cp         oc   
7        58.47900000    107.68060000      1.41700000      1.37680000 #  cp         cp         oh   
8         0.00000000      0.00000000      1.37680000      1.37680000 #  cp         oc         cp   
9        53.86140000     23.92240000      1.37680000      0.96500000 #  cp         oh         ho   

AngleAngleTorsion Coeffs  # class2

1         0.00000000    110.58840000    108.40000000 #  cp        c_0        cp         cp   
2         0.00000000    119.30000000    108.40000000 #  o_1       c_0        cp         cp   
3         0.00000000    108.40000000    118.90000000 #  c_0        cp        cp         cp   
4         0.00000000    118.90000000    118.90000000 #  cp         cp        cp         cp   
5         0.00000000    108.40000000    117.94000000 #  c_0        cp        cp         hc   
6         0.35980000    117.94000000    117.94000000 #  hc         cp        cp         hc   
7        -4.81410000    118.90000000    117.94000000 #  cp         cp        cp         hc   
8         4.22960000    117.94000000    123.42000000 #  hc         cp        cp         oc   
9       -21.02470000    118.90000000    123.42000000 #  cp         cp        cp         oc   
10      -21.02470000    118.90000000    123.42000000 #  cp         cp        cp         oh   
11        4.22960000    117.94000000    123.42000000 #  hc         cp        cp         oh   
12        0.00000000    123.42000000    109.50000000 #  cp         cp        oc         cp   
13       -4.60720000    123.42000000    108.19000000 #  cp         cp        oh         ho   

EndBondTorsion Coeffs  # class2

1         0.00000000      0.00000000      0.00000000      0.00000000      0.00000000      0.00000000      1.48900000      1.41700000 #  cp        c_0        cp         cp   
2         0.00000000      0.00000000      0.00000000      0.00000000      0.00000000      0.00000000      1.21600000      1.41700000 #  o_1       c_0        cp         cp   
3         0.00000000      0.00000000      0.00000000      0.00000000      0.00000000      0.00000000      1.48900000      1.41700000 #  c_0        cp        cp         cp   
4        -0.11850000      6.32040000      0.00000000     -0.11850000      6.32040000      0.00000000      1.41700000      1.41700000 #  cp         cp        cp         cp   
5         0.00000000      0.00000000      0.00000000      0.00000000      0.00000000      0.00000000      1.48900000      1.09820000 #  c_0        cp        cp         hc   
6         0.00000000     -0.68900000      0.00000000      0.00000000     -0.68900000      0.00000000      1.09820000      1.09820000 #  hc         cp        cp         hc   
7         0.00000000     -6.89580000      0.00000000      0.00000000     -0.46690000      0.00000000      1.41700000      1.09820000 #  cp         cp        cp         hc   
8         0.00000000     -1.58670000      0.00000000      0.00000000      4.26410000      0.00000000      1.09820000      1.37680000 #  hc         cp        cp         oc   
9         0.00000000      0.26550000      0.00000000      0.00000000      4.89050000      0.00000000      1.41700000      1.37680000 #  cp         cp        cp         oc   
10        0.00000000      0.26550000      0.00000000      0.00000000      4.89050000      0.00000000      1.41700000      1.37680000 #  cp         cp        cp         oh   
11        0.00000000     -1.58670000      0.00000000      0.00000000      4.26410000      0.00000000      1.09820000      1.37680000 #  hc         cp        cp         oh   
12        0.00000000      0.00000000      0.00000000      0.00000000      0.00000000      0.00000000      1.41700000      1.37680000 #  cp         cp        oc         cp   
13        0.90000000     -1.34560000      1.19000000      3.41320000      0.58730000     -0.13230000      1.41700000      0.96500000 #  cp         cp        oh         ho   

MiddleBondTorsion Coeffs  # class2

1         0.00000000      0.00000000      0.00000000      1.48900000 #  cp        c_0        cp         cp   
2         0.00000000      0.00000000      0.00000000      1.48900000 #  o_1       c_0        cp         cp   
3         0.00000000      0.00000000      0.00000000      1.41700000 #  c_0        cp        cp         cp   
4        27.59890000     -2.31200000      0.00000000      1.41700000 #  cp         cp        cp         cp   
5         0.00000000      0.00000000      0.00000000      1.41700000 #  c_0        cp        cp         hc   
6         0.00000000      4.82280000      0.00000000      1.41700000 #  hc         cp        cp         hc   
7         0.00000000     -1.15210000      0.00000000      1.41700000 #  cp         cp        cp         hc   
8         0.00000000      5.54320000      0.00000000      1.41700000 #  hc         cp        cp         oc   
9         0.00000000      4.82550000      0.00000000      1.41700000 #  cp         cp        cp         oc   
10        0.00000000      4.82550000      0.00000000      1.41700000 #  cp         cp        cp         oh   
11        0.00000000      5.54320000      0.00000000      1.41700000 #  hc         cp        cp         oh   
12        0.00000000      0.00000000      0.00000000      1.37680000 #  cp         cp        oc         cp   
13        1.15800000      3.26970000      3.51320000      1.37680000 #  cp         cp        oh         ho   

BondBond13 Coeffs  # class2

1         0.00000000      1.48900000      1.41700000 #  cp        c_0        cp         cp   
2         0.00000000      1.21600000      1.41700000 #  o_1       c_0        cp         cp   
3         0.00000000      1.48900000      1.41700000 #  c_0        cp        cp         cp   
4        53.00000000      1.41700000      1.41700000 #  cp         cp        cp         cp   
5         0.00000000      1.48900000      1.09820000 #  c_0        cp        cp         hc   
6        -1.70770000      1.09820000      1.09820000 #  hc         cp        cp         hc   
7        -6.27410000      1.41700000      1.09820000 #  cp         cp        cp         hc   
8         2.05170000      1.09820000      1.37680000 #  hc         cp        cp         oc   
9        -2.24360000      1.41700000      1.37680000 #  cp         cp        cp         oc   
10       -2.24360000      1.41700000      1.37680000 #  cp         cp        cp         oh   
11        2.05170000      1.09820000      1.37680000 #  hc         cp        cp         oh   
12        0.00000000      1.41700000      1.37680000 #  cp         cp        oc         cp   
13        1.15900000      1.41700000      0.96500000 #  cp         cp        oh         ho   

AngleTorsion Coeffs  # class2

1         0.00000000      0.00000000      0.00000000      0.00000000      0.00000000      0.00000000    110.58840000    108.40000000 #  cp        c_0        cp         cp   
2         0.00000000      0.00000000      0.00000000      0.00000000      0.00000000      0.00000000    119.30000000    108.40000000 #  o_1       c_0        cp         cp   
3         0.00000000      0.00000000      0.00000000      0.00000000      0.00000000      0.00000000    108.40000000    118.90000000 #  c_0        cp        cp         cp   
4         1.97670000      1.02390000      0.00000000      1.97670000      1.02390000      0.00000000    118.90000000    118.90000000 #  cp         cp        cp         cp   
5         0.00000000      0.00000000      0.00000000      0.00000000      0.00000000      0.00000000    108.40000000    117.94000000 #  c_0        cp        cp         hc   
6         0.00000000      2.45010000      0.00000000      0.00000000      2.45010000      0.00000000    117.94000000    117.94000000 #  hc         cp        cp         hc   
7         0.00000000      2.50140000      0.00000000      0.00000000      2.71470000      0.00000000    118.90000000    117.94000000 #  cp         cp        cp         hc   
8         0.00000000      1.87290000      0.00000000      0.00000000      2.57060000      0.00000000    117.94000000    123.42000000 #  hc         cp        cp         oc   
9         0.00000000     10.01550000      0.00000000      0.00000000      1.74040000      0.00000000    118.90000000    123.42000000 #  cp         cp        cp         oc   
10        0.00000000     10.01550000      0.00000000      0.00000000      1.74040000      0.00000000    118.90000000    123.42000000 #  cp         cp        cp         oh   
11        0.00000000      1.87290000      0.00000000      0.00000000      2.57060000      0.00000000    117.94000000    123.42000000 #  hc         cp        cp         oh   
12        0.00000000      0.00000000      0.00000000      0.00000000      0.00000000      0.00000000    123.42000000    109.50000000 #  cp         cp        oc         cp   
13       -5.13600000     -1.01220000      0.00000000      4.68520000      0.02300000     -0.59800000    123.42000000    108.19000000 #  cp         cp        oh         ho   

AngleAngle Coeffs  # class2

1         0.00000000      0.00000000      0.00000000    108.40000000    118.90000000    108.40000000 #  c_0        cp        cp        cp      nb==3   
2         0.00000000      0.00000000      0.00000000    110.58840000    119.30000000    119.30000000 #  cp        c_0        cp       o_1      nb==3   
3         0.00000000      0.00000000      0.00000000    118.90000000    117.94000000    117.94000000 #  cp         cp        cp        hc      nb==3   
4         0.00000000      0.00000000      0.00000000    118.90000000    123.42000000    123.42000000 #  cp         cp        cp        oc      nb==3   
5         0.00000000      0.00000000      0.00000000    118.90000000    123.42000000    123.42000000 #  cp         cp        cp        oh      nb==3   

Atoms # full

  1     1   2    0.026500   -13.146997222   -0.286200000     0.720402778      0    0    0 #  cp/C
  2     1   2   -0.126800   -13.147097222   -1.681000000     0.720302778      0    0    0 #  cp/C
  3     1   2   -0.126800   -11.938997222   -2.378400000     0.720402778      0    0    0 #  cp/C
  4     1   2   -0.126800   -10.731097222   -0.286200000     0.720402778      0    0    0 #  cp/C
  5     1   2   -0.126800   -11.939097222    0.411300000     0.720402778      0    0    0 #  cp/C
  6     1   2    0.026500   -8.489897222    -1.524300000     0.720502778      0    0    0 #  cp/C
  7     1   2   -0.126800   -7.710597222    -1.389100000    -0.428397222      0    0    0 #  cp/C
  8     1   2   -0.126800   -6.611297222    -0.530400000    -0.428297222      0    0    0 #  cp/C
  9     1   2    0.000000   -6.291597222     0.193100000     0.720502778      0    0    0 #  cp/C
  10    1   2   -0.126800   -7.070897222     0.057900000     1.869302778      0    0    0 #  cp/C
  11    1   2   -0.126800   -8.170097222    -0.800800000     1.869302778      0    0    0 #  cp/C
  12    1   2   -0.126800   -5.071397222     1.490700000    -1.606197222      0    0    0 #  cp/C
  13    1   2   -0.126800   -4.292097222     1.625900000    -2.755097222      0    0    0 #  cp/C
  14    1   2   -0.126800   -2.913197222     1.425900000    -2.689797222      0    0    0 #  cp/C
  15    1   2   -0.126800   -2.313697222     1.090900000    -1.475797222      0    0    0 #  cp/C
  16    1   2   -0.126800   -3.092997222     0.955800000    -0.326997222      0    0    0 #  cp/C
  17    1   1    0.396400   -5.226897222     1.024700000     0.720502778      0    0    0 #  c_0/C
  18    1   2    0.000000   -4.471997222     1.155700000    -0.392197222      0    0    0 #  cp/C
  19    1   6   -0.053000   -9.557697222    -2.358500000     0.720502778      0    0    0 #  oc/O
  20    1   2    0.026500   -10.731097222   -1.681000000     0.720402778      0    0    0 #  cp/C
  21    1   7   -0.450600   -14.320497222    0.391400000     0.720402778      0    0    0 #  oh/O
  22    1   5   -0.396400   -4.949897222     1.651300000     1.715502778      0    0    0 #  o_1/O
  23    1   3    0.126800   -14.099697222   -2.231000000     0.720202778      0    0    0 #  hc/H
  24    1   3    0.126800   -11.938997222   -3.478400000     0.720502778      0    0    0 #  hc/H
  25    1   3    0.126800   -9.778397222     0.263800000     0.720302778      0    0    0 #  hc/H
  26    1   3    0.126800   -11.939097222    1.511300000     0.720402778      0    0    0 #  hc/H
  27    1   3    0.126800   -7.962797222    -1.959600000    -1.334397222      0    0    0 #  hc/H
  28    1   3    0.126800   -5.996597222    -0.423800000    -1.334297222      0    0    0 #  hc/H
  29    1   3    0.126800   -6.818697222     0.628600000     2.775302778      0    0    0 #  hc/H
  30    1   3    0.126800   -8.784797222    -0.907400000     2.775302778      0    0    0 #  hc/H
  31    1   3    0.126800   -6.158897222     1.648300000    -1.657597222      0    0    0 #  hc/H
  32    1   3    0.126800   -4.764897222     1.890200000    -3.712497222      0    0    0 #  hc/H
  33    1   3    0.126800   -2.298497222     1.532400000    -3.595797222      0    0    0 #  hc/H
  34    1   3    0.126800   -1.226297222     0.933200000    -1.424397222      0    0    0 #  hc/H
  35    1   3    0.126800   -2.620197222     0.691600000     0.630502778      0    0    0 #  hc/H
  36    1   4    0.424100   -14.118397222    1.342100000     0.720402778      0    0    0 #  ho/H
  37    2   2    0.026500    2.447202778    -0.286200000     0.720402778      0    0    0 #  cp/C
  38    2   2   -0.126800    2.447102778    -1.681000000     0.720302778      0    0    0 #  cp/C
  39    2   2   -0.126800    3.655102778    -2.378400000     0.720402778      0    0    0 #  cp/C
  40    2   2   -0.126800    4.863102778    -0.286200000     0.720402778      0    0    0 #  cp/C
  41    2   2   -0.126800    3.655102778     0.411300000     0.720402778      0    0    0 #  cp/C
  42    2   2    0.026500    7.104302778    -1.524300000     0.720502778      0    0    0 #  cp/C
  43    2   2   -0.126800    7.883602778    -1.389100000    -0.428397222      0    0    0 #  cp/C
  44    2   2   -0.126800    8.982902778    -0.530400000    -0.428297222      0    0    0 #  cp/C
  45    2   2    0.000000    9.302602778     0.193100000     0.720502778      0    0    0 #  cp/C
  46    2   2   -0.126800    8.523302778     0.057900000     1.869302778      0    0    0 #  cp/C
  47    2   2   -0.126800    7.424102778    -0.800800000     1.869302778      0    0    0 #  cp/C
  48    2   2   -0.126800   10.522702778     1.490700000    -1.606197222      0    0    0 #  cp/C
  49    2   2   -0.126800   11.302102778     1.625900000    -2.755097222      0    0    0 #  cp/C
  50    2   2   -0.126800   12.681002778     1.425900000    -2.689797222      0    0    0 #  cp/C
  51    2   2   -0.126800   13.280502778     1.090900000    -1.475797222      0    0    0 #  cp/C
  52    2   2   -0.126800   12.501202778     0.955800000    -0.326997222      0    0    0 #  cp/C
  53    2   1    0.396400   10.367302778     1.024700000     0.720502778      0    0    0 #  c_0/C
  54    2   2    0.000000   11.122202778     1.155700000    -0.392197222      0    0    0 #  cp/C
  55    2   6   -0.053000    6.036502778    -2.358500000     0.720502778      0    0    0 #  oc/O
  56    2   2    0.026500    4.863102778    -1.681000000     0.720402778      0    0    0 #  cp/C
  57    2   7   -0.450600    1.273702778     0.391400000     0.720402778      0    0    0 #  oh/O
  58    2   5   -0.396400   10.644302778     1.651300000     1.715502778      0    0    0 #  o_1/O
  59    2   3    0.126800    1.494502778    -2.231000000     0.720202778      0    0    0 #  hc/H
  60    2   3    0.126800    3.655102778    -3.478400000     0.720502778      0    0    0 #  hc/H
  61    2   3    0.126800    5.815802778     0.263800000     0.720302778      0    0    0 #  hc/H
  62    2   3    0.126800    3.655102778     1.511300000     0.720402778      0    0    0 #  hc/H
  63    2   3    0.126800    7.631402778    -1.959600000    -1.334397222      0    0    0 #  hc/H
  64    2   3    0.126800    9.597602778    -0.423800000    -1.334297222      0    0    0 #  hc/H
  65    2   3    0.126800    8.775402778     0.628600000     2.775302778      0    0    0 #  hc/H
  66    2   3    0.126800    6.809402778    -0.907400000     2.775302778      0    0    0 #  hc/H
  67    2   3    0.126800    9.435302778     1.648300000    -1.657597222      0    0    0 #  hc/H
  68    2   3    0.126800   10.829302778     1.890200000    -3.712497222      0    0    0 #  hc/H
  69    2   3    0.126800   13.295702778     1.532400000    -3.595797222      0    0    0 #  hc/H
  70    2   3    0.126800   14.367902778     0.933200000    -1.424397222      0    0    0 #  hc/H
  71    2   3    0.126800   12.974002778     0.691600000     0.630502778      0    0    0 #  hc/H
  72    2   4    0.424100    1.475802778     1.342100000     0.720402778      0    0    0 #  ho/H

Bonds

  1   3     1     2  
  2   3     1     5  
  3   6     1    21  
  4   3     2     3  
  5   4     2    23  
  6   3     3    20  
  7   4     3    24  
  8   3     4     5  
  9   3     4    20  
 10   4     4    25  
 11   4     5    26  
 12   3     6     7  
 13   3     6    11  
 14   5     6    19  
 15   3     7     8  
 16   4     7    27  
 17   3     8     9  
 18   4     8    28  
 19   3     9    10  
 20   1    17     9  
 21   3    10    11  
 22   4    10    29  
 23   4    11    30  
 24   3    12    13  
 25   3    12    18  
 26   4    12    31  
 27   3    13    14  
 28   4    13    32  
 29   3    14    15  
 30   4    14    33  
 31   3    15    16  
 32   4    15    34  
 33   3    16    18  
 34   4    16    35  
 35   1    17    18  
 36   2    17    22  
 37   5    20    19  
 38   7    36    21  
 39   3    37    38  
 40   3    37    41  
 41   6    37    57  
 42   3    38    39  
 43   4    38    59  
 44   3    39    56  
 45   4    39    60  
 46   3    40    41  
 47   3    40    56  
 48   4    40    61  
 49   4    41    62  
 50   3    42    43  
 51   3    42    47  
 52   5    42    55  
 53   3    43    44  
 54   4    43    63  
 55   3    44    45  
 56   4    44    64  
 57   3    45    46  
 58   1    53    45  
 59   3    46    47  
 60   4    46    65  
 61   4    47    66  
 62   3    48    49  
 63   3    48    54  
 64   4    48    67  
 65   3    49    50  
 66   4    49    68  
 67   3    50    51  
 68   4    50    69  
 69   3    51    52  
 70   4    51    70  
 71   3    52    54  
 72   4    52    71  
 73   1    53    54  
 74   2    53    58  
 75   5    56    55  
 76   7    72    57  

Angles

  1   7     5     1    21  
  2   7     2     1    21  
  3   4     2     1     5  
  4   4     1     2     3  
  5   5     3     2    23  
  6   5     1     2    23  
  7   5    20     3    24  
  8   4     2     3    20  
  9   5     2     3    24  
 10   4     5     4    20  
 11   5    20     4    25  
 12   5     5     4    25  
 13   4     1     5     4  
 14   5     4     5    26  
 15   5     1     5    26  
 16   4     7     6    11  
 17   6     7     6    19  
 18   6    11     6    19  
 19   4     6     7     8  
 20   5     8     7    27  
 21   5     6     7    27  
 22   5     9     8    28  
 23   5     7     8    28  
 24   4     7     8     9  
 25   1    17     9    10  
 26   1    17     9     8  
 27   4     8     9    10  
 28   5    11    10    29  
 29   4     9    10    11  
 30   5     9    10    29  
 31   5     6    11    30  
 32   5    10    11    30  
 33   4     6    11    10  
 34   4    13    12    18  
 35   5    13    12    31  
 36   5    18    12    31  
 37   4    12    13    14  
 38   5    12    13    32  
 39   5    14    13    32  
 40   5    15    14    33  
 41   4    13    14    15  
 42   5    13    14    33  
 43   5    14    15    34  
 44   5    16    15    34  
 45   4    14    15    16  
 46   5    15    16    35  
 47   5    18    16    35  
 48   4    15    16    18  
 49   3     9    17    22  
 50   3    18    17    22  
 51   2     9    17    18  
 52   1    17    18    12  
 53   4    12    18    16  
 54   1    17    18    16  
 55   8     6    19    20  
 56   4     3    20     4  
 57   6     3    20    19  
 58   6     4    20    19  
 59   9     1    21    36  
 60   4    38    37    41  
 61   7    38    37    57  
 62   7    41    37    57  
 63   5    39    38    59  
 64   4    37    38    39  
 65   5    37    38    59  
 66   5    56    39    60  
 67   4    38    39    56  
 68   5    38    39    60  
 69   5    56    40    61  
 70   5    41    40    61  
 71   4    41    40    56  
 72   5    40    41    62  
 73   4    37    41    40  
 74   5    37    41    62  
 75   6    43    42    55  
 76   6    47    42    55  
 77   4    43    42    47  
 78   5    42    43    63  
 79   5    44    43    63  
 80   4    42    43    44  
 81   5    45    44    64  
 82   5    43    44    64  
 83   4    43    44    45  
 84   4    44    45    46  
 85   1    53    45    44  
 86   1    53    45    46  
 87   5    47    46    65  
 88   4    45    46    47  
 89   5    45    46    65  
 90   4    42    47    46  
 91   5    42    47    66  
 92   5    46    47    66  
 93   4    49    48    54  
 94   5    49    48    67  
 95   5    54    48    67  
 96   5    50    49    68  
 97   4    48    49    50  
 98   5    48    49    68  
 99   4    49    50    51  
 100  5    51    50    69  
 101  5    49    50    69  
 102  4    50    51    52  
 103  5    50    51    70  
 104  5    52    51    70  
 105  5    51    52    71  
 106  4    51    52    54  
 107  5    54    52    71  
 108  3    54    53    58  
 109  2    45    53    54  
 110  3    45    53    58  
 111  4    48    54    52  
 112  1    53    54    48  
 113  1    53    54    52  
 114  8    42    55    56  
 115  4    39    56    40  
 116  6    40    56    55  
 117  6    39    56    55  
 118  9    37    57    72  

Dihedrals

  1   7     2     1     5    26  
  2   13    2     1    21    36  
  3   7     5     1     2    23  
  4   11   26     5     1    21  
  5   11   23     2     1    21  
  6   13    5     1    21    36  
  7   4     2     1     5     4  
  8   4     3     2     1     5  
  9   4     1     2     3    20  
 10   10    3     2     1    21  
 11   6    23     2     3    24  
 12   7     1     2     3    24  
 13   9     2     3    20    19  
 14   4     2     3    20     4  
 15   7    20     3     2    23  
 16   9     5     4    20    19  
 17   7    20     4     5    26  
 18   6    25     4     5    26  
 19   7     1     5     4    25  
 20   4     1     5     4    20  
 21   10    4     5     1    21  
 22   8    27     7     6    19  