LAMMPS data and nta file via ensemble.ens2lmp(); Old names:	 c:\users\trist\onedrive\desktop\research\pbz\template and replicate creation\PBZ.mol2 > all2lmp: v1.18 / 28 April 2024  Class: 2

40 atoms
40 bonds
65 angles
84 dihedrals
29 impropers

8 atom types
10 bond types
16 angle types
20 dihedral types
11 improper types

-4.396496923 4.643003077 xlo xhi
-9.417096923 9.077503077 ylo yhi
-5.629901539 5.486898462 zlo zhi

Masses

1   12.01115000  #  c    
2   12.01115000  #  c2   
3   12.01115000  #  c3   
4   12.01115000  #  cp   
5    1.00797000  #  hc   
6    1.00797000  #  ho   
7   14.00670000  #  nn   
8   15.99940000  #  oh   

Pair Coeffs  # lj/class2/coul/long

1         0.05400000      4.01000000 #  c    
2         0.05400000      4.01000000 #  c2   
3         0.05400000      3.90000000 #  c3   
4         0.06400000      4.01000000 #  cp   
5         0.02000000      2.30000000 #  hc   
6         0.01300000      1.09800000 #  ho   
7         0.06500000      4.07000000 #  nn   
8         0.24000000      3.53500000 #  oh   

Bond Coeffs  # class2

1         1.53000000    299.67000000   -501.77000000    679.81000000 #  c           c3   
2         1.50100000    321.90210000   -521.82080000    572.16280000 #  c           cp   
3         1.50100000    321.90210000   -521.82080000    572.16280000 #  c2          cp   
4         1.10100000    345.00000000   -691.89000000    844.60000000 #  c2          hc   
5         1.47000000    356.59880000      0.00000000      0.00000000 #  c2          nn   
6         1.41700000    470.83610000   -627.61790000   1327.63450000 #  cp          cp   
7         1.09820000    372.82510000   -803.45260000    894.31730000 #  cp          hc   
8         1.39120000    447.04380000   -784.53460000    886.16710000 #  cp          nn   
9         1.37680000    428.87980000   -738.23510000   1114.96550000 #  cp          oh   
10        0.96500000    532.50620000  -1282.90500000   2004.76580000 #  ho          oh   

Angle Coeffs  # class2

1       120.05000000     44.71480000    -22.73520000      0.00000000 #  c          cp         cp   
2       120.05000000     44.71480000    -22.73520000      0.00000000 #  c2         cp         cp   
3       120.00000000     50.00000000      0.00000000      0.00000000 #  c2         nn         c2   
4       120.00000000     50.00000000      0.00000000      0.00000000 #  c2         nn         cp   
5       112.67000000     39.51600000     -7.44300000     -9.55830000 #  c3         c          c3   
6       108.40000000     43.95940000     -8.39240000     -9.33790000 #  c3         c          cp   
7       111.00000000     44.32340000     -9.44540000      0.00000000 #  cp         c          cp   
8       111.00000000     44.32340000     -9.44540000      0.00000000 #  cp         c2         hc   
9       114.00000000     50.00000000      0.00000000      0.00000000 #  cp         c2         nn   
10      118.90000000     61.02260000    -34.99310000      0.00000000 #  cp         cp         cp   
11      117.94000000     35.15580000    -12.46820000      0.00000000 #  cp         cp         hc   
12      121.45840000     61.06470000    -21.61720000      0.00000000 #  cp         cp         nn   
13      123.42000000     73.67810000    -21.67870000      0.00000000 #  cp         cp         oh   
14      108.19000000     53.12500000     -8.50160000      0.00000000 #  cp         oh         ho   
15      107.66000000     39.64100000    -12.92100000     -2.43180000 #  hc         c2         hc   
16      109.50000000     50.00000000      0.00000000      0.00000000 #  hc         c2         nn   

Dihedral Coeffs  # class2

1        -0.28020000      0.00000000     -0.06780000      0.00000000     -0.01220000      0.00000000 #  cp         c         cp         cp   
2        -0.28020000      0.00000000     -0.06780000      0.00000000     -0.01220000      0.00000000 #  c3         c         cp         cp   
3         0.00000000      0.00000000      0.00000000      0.00000000      0.00000000      0.00000000 #  cp         c2        nn         cp   
4        -0.28010000      0.00000000     -0.06780000      0.00000000     -0.01220000      0.00000000 #  hc         c2        cp         cp   
5         0.00000000      0.00000000      0.00000000      0.00000000      0.00000000      0.00000000 #  nn         c2        cp         cp   
6         8.36670000      0.00000000      1.19320000      0.00000000      0.00000000      0.00000000 #  cp         cp        cp         cp   
7         0.00000000      0.00000000      4.40720000      0.00000000      0.00000000      0.00000000 #  c          cp        cp         cp   
8         0.00000000      0.00000000      4.40720000      0.00000000      0.00000000      0.00000000 #  c2         cp        cp         cp   
9         0.00000000      0.00000000      1.55900000      0.00000000      0.00000000      0.00000000 #  c2         cp        cp         hc   
10        0.00000000      0.00000000      3.96610000      0.00000000      0.00000000      0.00000000 #  cp         cp        cp         hc   
11        0.00000000      0.00000000      1.55900000      0.00000000      0.00000000      0.00000000 #  c          cp        cp         hc   
12        0.00000000      0.00000000      1.33310000      0.00000000      0.00000000      0.00000000 #  hc         cp        cp         nn   
13        0.00000000      0.00000000      5.38260000      0.00000000      0.00000000      0.00000000 #  cp         cp        cp         nn   
14        0.00000000      0.00000000      3.00000000      0.00000000      0.00000000      0.00000000 #  c2         cp        cp         oh   
15        0.00000000      0.00000000      4.84980000      0.00000000      0.00000000      0.00000000 #  cp         cp        cp         oh   
16       -0.69000000      0.00000000      0.50970000      0.00000000      0.00950000      0.00000000 #  cp         cp        oh         ho   
17        0.00000000      0.00000000      0.00000000      0.00000000      0.00000000      0.00000000 #  cp         c2        nn         c2   
18        0.00000000      0.00000000      0.00000000      0.00000000      0.00000000      0.00000000 #  hc         c2        nn         cp   
19        0.00000000      0.00000000      0.00000000      0.00000000      0.00000000      0.00000000 #  hc         c2        nn         c2   
20        0.00000000      0.00000000      2.25000000      0.00000000      0.00000000      0.00000000 #  cp         cp        nn         c2   

Improper Coeffs  # class2

1         7.81530000      0.00000000 #  c          cp        cp        cp      nb==3   
2         7.81530000      0.00000000 #  c2         cp        cp        cp      nb==3   
3         0.10000000      0.00000000 #  c2         nn        c2        cp      nb==3   
4         4.89120000      0.00000000 #  cp         cp        cp        hc      nb==3   
5        10.78550000      0.00000000 #  cp         cp        cp        nn      nb==3   
6        13.04210000      0.00000000 #  cp         cp        cp        oh      nb==3   
7         0.00000000      0.00000000 #  c3         c         c3        cp      nb!=3   
8         0.00000000      0.00000000 #  c3         c         cp        cp      nb!=3   
9         0.00000000      0.00000000 #  cp         c2        hc        hc      nb!=3   
10        0.00000000      0.00000000 #  cp         c2        hc        nn      nb!=3   
11        0.00000000      0.00000000 #  hc         c2        hc        nn      nb!=3   

BondBond Coeffs  # class2

1        12.06760000      1.50100000      1.41700000 #  c          cp         cp   
2        12.06760000      1.50100000      1.41700000 #  c2         cp         cp   
3         0.00000000      1.47000000      1.47000000 #  c2         nn         c2   
4         0.00000000      1.47000000      1.39120000 #  c2         nn         cp   
5         0.00000000      1.53000000      1.53000000 #  c3         c          c3   
6         0.00000000      1.53000000      1.50100000 #  c3         c          cp   
7         0.00000000      1.50100000      1.50100000 #  cp         c          cp   
8         2.91680000      1.50100000      1.10100000 #  cp         c2         hc   
9         0.00000000      1.50100000      1.47000000 #  cp         c2         nn   
10       68.28560000      1.41700000      1.41700000 #  cp         cp         cp   
11        1.07950000      1.41700000      1.09820000 #  cp         cp         hc   
12       46.95130000      1.41700000      1.39120000 #  cp         cp         nn   
13       48.47540000      1.41700000      1.37680000 #  cp         cp         oh   
14       20.65770000      1.37680000      0.96500000 #  cp         oh         ho   
15        5.33160000      1.10100000      1.10100000 #  hc         c2         hc   
16        0.00000000      1.10100000      1.47000000 #  hc         c2         nn   

BondAngle Coeffs  # class2

1        47.05790000     31.07710000      1.50100000      1.41700000 #  c          cp         cp   
2        47.05790000     31.07710000      1.50100000      1.41700000 #  c2         cp         cp   
3         0.00000000      0.00000000      1.47000000      1.47000000 #  c2         nn         c2   
4         0.00000000      0.00000000      1.47000000      1.39120000 #  c2         nn         cp   
5         8.01600000      8.01600000      1.53000000      1.53000000 #  c3         c          c3   
6         0.00000000      0.00000000      1.53000000      1.50100000 #  c3         c          cp   
7         0.00000000      0.00000000      1.50100000      1.50100000 #  cp         c          cp   
8        26.46080000     11.77170000      1.50100000      1.10100000 #  cp         c2         hc   
9         0.00000000      0.00000000      1.50100000      1.47000000 #  cp         c2         nn   
10       28.87080000     28.87080000      1.41700000      1.41700000 #  cp         cp         cp   
11       20.00330000     24.21830000      1.41700000      1.09820000 #  cp         cp         hc   
12       39.40400000     73.65480000      1.41700000      1.39120000 #  cp         cp         nn   
13       58.47900000    107.68060000      1.41700000      1.37680000 #  cp         cp         oh   
14       53.86140000     23.92240000      1.37680000      0.96500000 #  cp         oh         ho   
15       18.10300000     18.10300000      1.10100000      1.10100000 #  hc         c2         hc   
16        0.00000000      0.00000000      1.10100000      1.47000000 #  hc         c2         nn   

AngleAngleTorsion Coeffs  # class2

1         0.00000000    111.00000000    120.05000000 #  cp         c         cp         cp   
2         0.00000000    108.40000000    120.05000000 #  c3         c         cp         cp   
3         0.00000000    114.00000000    120.00000000 #  cp         c2        nn         cp   
4        -5.88880000    111.00000000    120.05000000 #  hc         c2        cp         cp   
5         0.00000000    114.00000000    120.05000000 #  nn         c2        cp         cp   
6         0.00000000    118.90000000    118.90000000 #  cp         cp        cp         cp   
7       -14.40970000    120.05000000    118.90000000 #  c          cp        cp         cp   
8       -14.40970000    120.05000000    118.90000000 #  c2         cp        cp         cp   
9         4.44440000    120.05000000    117.94000000 #  c2         cp        cp         hc   
10       -4.81410000    118.90000000    117.94000000 #  cp         cp        cp         hc   
11        4.44440000    120.05000000    117.94000000 #  c          cp        cp         hc   
12        0.00000000    117.94000000    121.45840000 #  hc         cp        cp         nn   
13        0.00000000    118.90000000    121.45840000 #  cp         cp        cp         nn   
14        0.00000000    120.05000000    123.42000000 #  c2         cp        cp         oh   
15      -21.02470000    118.90000000    123.42000000 #  cp         cp        cp         oh   
16       -4.60720000    123.42000000    108.19000000 #  cp         cp        oh         ho   
17        0.00000000    114.00000000    120.00000000 #  cp         c2        nn         c2   
18        0.00000000    109.50000000    120.00000000 #  hc         c2        nn         cp   
19        0.00000000    109.50000000    120.00000000 #  hc         c2        nn         c2   
20        0.00000000    121.45840000    120.00000000 #  cp         cp        nn         c2   

EndBondTorsion Coeffs  # class2

1         0.00000000      0.00000000      0.00000000      0.00000000      0.00000000      0.00000000      1.50100000      1.41700000 #  cp         c         cp         cp   
2         0.00000000      0.00000000      0.00000000      0.00000000      0.00000000      0.00000000      1.53000000      1.41700000 #  c3         c         cp         cp   
3         0.00000000      0.00000000      0.00000000      0.00000000      0.00000000      0.00000000      1.50100000      1.39120000 #  cp         c2        nn         cp   
4         1.39970000      0.77560000      0.00000000     -0.58350000      1.12200000      0.39780000      1.10100000      1.41700000 #  hc         c2        cp         cp   
5         0.00000000      0.00000000      0.00000000      0.00000000      0.00000000      0.00000000      1.47000000      1.41700000 #  nn         c2        cp         cp   
6        -0.11850000      6.32040000      0.00000000     -0.11850000      6.32040000      0.00000000      1.41700000      1.41700000 #  cp         cp        cp         cp   
7         0.00000000      0.24210000      0.00000000      0.00000000     -0.69180000      0.00000000      1.50100000      1.41700000 #  c          cp        cp         cp   
8         0.00000000      0.24210000      0.00000000      0.00000000     -0.69180000      0.00000000      1.50100000      1.41700000 #  c2         cp        cp         cp   
9         0.00000000     -1.79700000      0.00000000      0.00000000     -0.48790000      0.00000000      1.50100000      1.09820000 #  c2         cp        cp         hc   
10        0.00000000     -6.89580000      0.00000000      0.00000000     -0.46690000      0.00000000      1.41700000      1.09820000 #  cp         cp        cp         hc   
11        0.00000000     -1.79700000      0.00000000      0.00000000     -0.48790000      0.00000000      1.50100000      1.09820000 #  c          cp        cp         hc   
12        0.00000000     -2.64820000      0.00000000      0.00000000     -1.64020000      0.00000000      1.09820000      1.39120000 #  hc         cp        cp         nn   
13        0.00000000     -6.54040000      0.00000000      0.00000000     -7.34770000      0.00000000      1.41700000      1.39120000 #  cp         cp        cp         nn   
14        0.00000000      0.00000000      0.00000000      0.00000000      0.00000000      0.00000000      1.50100000      1.37680000 #  c2         cp        cp         oh   
15        0.00000000      0.26550000      0.00000000      0.00000000      4.89050000      0.00000000      1.41700000      1.37680000 #  cp         cp        cp         oh   
16        0.90000000     -1.34560000      1.19000000      3.41320000      0.58730000     -0.13230000      1.41700000      0.96500000 #  cp         cp        oh         ho   
17        0.00000000      0.00000000      0.00000000      0.00000000      0.00000000      0.00000000      1.50100000      1.47000000 #  cp         c2        nn         c2   
18        0.00000000      0.00000000      0.00000000      0.00000000      0.00000000      0.00000000      1.10100000      1.39120000 #  hc         c2        nn         cp   
19        0.00000000      0.00000000      0.00000000      0.00000000      0.00000000      0.00000000      1.10100000      1.47000000 #  hc         c2        nn         c2   
20        0.00000000      0.00000000      0.00000000      0.00000000      0.00000000      0.00000000      1.41700000      1.47000000 #  cp         cp        nn         c2   

MiddleBondTorsion Coeffs  # class2

1         0.00000000      0.00000000      0.00000000      1.50100000 #  cp         c         cp         cp   
2         0.00000000      0.00000000      0.00000000      1.50100000 #  c3         c         cp         cp   
3         0.00000000      0.00000000      0.00000000      1.47000000 #  cp         c2        nn         cp   
4        -5.56790000      1.40830000      0.30100000      1.50100000 #  hc         c2        cp         cp   
5         0.00000000      0.00000000      0.00000000      1.50100000 #  nn         c2        cp         cp   
6        27.59890000     -2.31200000      0.00000000      1.41700000 #  cp         cp        cp         cp   
7         0.00000000      9.17920000      0.00000000      1.41700000 #  c          cp        cp         cp   
8         0.00000000      9.17920000      0.00000000      1.41700000 #  c2         cp        cp         cp   
9         0.00000000      3.94210000      0.00000000      1.41700000 #  c2         cp        cp         hc   
10        0.00000000     -1.15210000      0.00000000      1.41700000 #  cp         cp        cp         hc   
11        0.00000000      3.94210000      0.00000000      1.41700000 #  c          cp        cp         hc   
12        0.00000000      2.28830000      0.00000000      1.41700000 #  hc         cp        cp         nn   
13        0.00000000     -0.56930000      0.00000000      1.41700000 #  cp         cp        cp         nn   
14        0.00000000      0.00000000      0.00000000      1.41700000 #  c2         cp        cp         oh   
15        0.00000000      4.82550000      0.00000000      1.41700000 #  cp         cp        cp         oh   
16        1.15800000      3.26970000      3.51320000      1.37680000 #  cp         cp        oh         ho   
17        0.00000000      0.00000000      0.00000000      1.47000000 #  cp         c2        nn         c2   
18        0.00000000      0.00000000      0.00000000      1.47000000 #  hc         c2        nn         cp   
19        0.00000000      0.00000000      0.00000000      1.47000000 #  hc         c2        nn         c2   
20        0.00000000      0.00000000      0.00000000      1.39120000 #  cp         cp        nn         c2   

BondBond13 Coeffs  # class2

1         0.00000000      1.50100000      1.41700000 #  cp         c         cp         cp   
2         0.00000000      1.53000000      1.41700000 #  c3         c         cp         cp   
3         0.00000000      1.50100000      1.39120000 #  cp         c2        nn         cp   
4        -3.48260000      1.10100000      1.41700000 #  hc         c2        cp         cp   
5         0.00000000      1.47000000      1.41700000 #  nn         c2        cp         cp   
6        53.00000000      1.41700000      1.41700000 #  cp         cp        cp         cp   
7         2.50850000      1.50100000      1.41700000 #  c          cp        cp         cp   
8         2.50850000      1.50100000      1.41700000 #  c2         cp        cp         cp   
9         0.87430000      1.50100000      1.09820000 #  c2         cp        cp         hc   
10       -6.27410000      1.41700000      1.09820000 #  cp         cp        cp         hc   
11        0.87430000      1.50100000      1.09820000 #  c          cp        cp         hc   
12       -1.07460000      1.09820000      1.39120000 #  hc         cp        cp         nn   
13       -9.79990000      1.41700000      1.39120000 #  cp         cp        cp         nn   
14        0.00000000      1.50100000      1.37680000 #  c2         cp        cp         oh   
15       -2.24360000      1.41700000      1.37680000 #  cp         cp        cp         oh   
16        1.15900000      1.41700000      0.96500000 #  cp         cp        oh         ho   
17        0.00000000      1.50100000      1.47000000 #  cp         c2        nn         c2   
18        0.00000000      1.10100000      1.39120000 #  hc         c2        nn         cp   
19        0.00000000      1.10100000      1.47000000 #  hc         c2        nn         c2   
20        0.00000000      1.41700000      1.47000000 #  cp         cp        nn         c2   

AngleTorsion Coeffs  # class2

1         0.00000000      0.00000000      0.00000000      0.00000000      0.00000000      0.00000000    111.00000000    120.05000000 #  cp         c         cp         cp   
2         0.00000000      0.00000000      0.00000000      0.00000000      0.00000000      0.00000000    108.40000000    120.05000000 #  c3         c         cp         cp   
3         0.00000000      0.00000000      0.00000000      0.00000000      0.00000000      0.00000000    114.00000000    120.00000000 #  cp         c2        nn         cp   
4         4.62660000      0.16320000      0.04610000      0.22510000      0.65480000      0.12370000    111.00000000    120.05000000 #  hc         c2        cp         cp   
5         0.00000000      0.00000000      0.00000000      0.00000000      0.00000000      0.00000000    114.00000000    120.05000000 #  nn         c2        cp         cp   
6         1.97670000      1.02390000      0.00000000      1.97670000      1.02390000      0.00000000    118.90000000    118.90000000 #  cp         cp        cp         cp   
7         0.00000000     -4.46830000      0.00000000      0.00000000      3.89870000      0.00000000    120.05000000    118.90000000 #  c          cp        cp         cp   
8         0.00000000     -4.46830000      0.00000000      0.00000000      3.89870000      0.00000000    120.05000000    118.90000000 #  c2         cp        cp         cp   
9         0.00000000     -0.12420000      0.00000000      0.00000000      3.46010000      0.00000000    120.05000000    117.94000000 #  c2         cp        cp         hc   
10        0.00000000      2.50140000      0.00000000      0.00000000      2.71470000      0.00000000    118.90000000    117.94000000 #  cp         cp        cp         hc   
11        0.00000000     -0.12420000      0.00000000      0.00000000      3.46010000      0.00000000    120.05000000    117.94000000 #  c          cp        cp         hc   
12        0.00000000      2.98130000      0.00000000      0.00000000      0.27870000      0.00000000    117.94000000    121.45840000 #  hc         cp        cp         nn   
13        0.00000000      9.09010000      0.00000000      0.00000000     -6.08820000      0.00000000    118.90000000    121.45840000 #  cp         cp        cp         nn   
14        0.00000000      0.00000000      0.00000000      0.00000000      0.00000000      0.00000000    120.05000000    123.42000000 #  c2         cp        cp         oh   
15        0.00000000     10.01550000      0.00000000      0.00000000      1.74040000      0.00000000    118.90000000    123.42000000 #  cp         cp        cp         oh   
16       -5.13600000     -1.01220000      0.00000000      4.68520000      0.02300000     -0.59800000    123.42000000    108.19000000 #  cp         cp        oh         ho   
17        0.00000000      0.00000000      0.00000000      0.00000000      0.00000000      0.00000000    114.00000000    120.00000000 #  cp         c2        nn         c2   
18        0.00000000      0.00000000      0.00000000      0.00000000      0.00000000      0.00000000    109.50000000    120.00000000 #  hc         c2        nn         cp   
19        0.00000000      0.00000000      0.00000000      0.00000000      0.00000000      0.00000000    109.50000000    120.00000000 #  hc         c2        nn         c2   
20        0.00000000      0.00000000      0.00000000      0.00000000      0.00000000      0.00000000    121.45840000    120.00000000 #  cp         cp        nn         c2   

AngleAngle Coeffs  # class2

1         0.00000000      0.00000000      0.00000000    120.05000000    118.90000000    120.05000000 #  c          cp        cp        cp      nb==3   
2         0.00000000      0.00000000      0.00000000    120.05000000    118.90000000    120.05000000 #  c2         cp        cp        cp      nb==3   
3         0.00000000      0.00000000      0.00000000    120.00000000    120.00000000    120.00000000 #  c2         nn        c2        cp      nb==3   
4         0.00000000      0.00000000      0.00000000    118.90000000    117.94000000    117.94000000 #  cp         cp        cp        hc      nb==3   
5         0.00000000      0.00000000      0.00000000    118.90000000    121.45840000    121.45840000 #  cp         cp        cp        nn      nb==3   
6         0.00000000      0.00000000      0.00000000    118.90000000    123.42000000    123.42000000 #  cp         cp        cp        oh      nb==3   
7         0.00000000      0.00000000      0.00000000    112.67000000    108.40000000    108.40000000 #  c3         c         c3        cp      nb!=3   
8         0.00000000      0.00000000      0.00000000    108.40000000    111.00000000    108.40000000 #  c3         c         cp        cp      nb!=3   
9         2.37940000      3.01180000      2.37940000    111.00000000    111.00000000    107.66000000 #  cp         c2        hc        hc      nb!=3   
10        0.00000000      0.00000000      0.00000000    111.00000000    109.50000000    114.00000000 #  cp         c2        hc        nn      nb!=3   
11        0.00000000      0.00000000      0.00000000    107.66000000    109.50000000    109.50000000 #  hc         c2        hc        nn      nb!=3   

Atoms # full

  1     1   4    0.000000   -0.031596920    -6.332796920     2.208298460      0    0    0 #  cp/C
  2     1   4    0.026500   -0.036296920    -4.971096920     2.506698460      0    0    0 #  cp/C
  3     1   4   -0.126800    0.604303080    -6.789896920     1.054398460      0    0    0 #  cp/C
  4     1   6    0.424100   -0.528796920    -7.045896920     2.882198460      0    0    0 #  ho/H
  5     1   4    0.000000    0.568603080    -4.052396920     1.645098460      0    0    0 #  cp/C
  6     1   8   -0.450600   -0.681296920    -4.590196920     3.652598460      0    0    0 #  oh/O
  7     1   4    0.000000    1.230303080    -5.883796920     0.198898460      0    0    0 #  cp/C
  8     1   5    0.126800    0.612103080    -7.864496920     0.819198460      0    0    0 #  hc/H
  9     1   4   -0.126800    1.215003080    -4.518896920     0.492798460      0    0    0 #  cp/C
  10    1   2    0.104800    0.550303080    -2.592196920     1.985998460      0    0    0 #  c2/C
  11    1   6    0.424100   -0.528796920    -0.045896920     2.882198460      0    0    0 #  ho/H
  12    1   1    0.000000    1.919403080    -6.375096920    -1.035901540      0    0    0 #  c/C
  13    1   5    0.126800    1.712303080    -3.807296920    -0.182801540      0    0    0 #  hc/H
  14    1   7   -0.504300   -0.496696920    -2.279096920     2.952798460      0    0    0 #  nn/N
  15    1   5    0.053000    0.369803080    -2.006996920     1.056698460      0    0    0 #  hc/H
  16    1   5    0.053000    1.532203080    -2.328096920     2.438598460      0    0    0 #  hc/H
  17    1   4    0.000000    1.942603080    -7.871896920    -1.032101540      0    0    0 #  cp/C
  18    1   3   -0.159000    3.346703080    -5.844596920    -1.065501540      0    0    0 #  c3/C
  19    1   3   -0.159000    1.170003080    -5.882796920    -2.266901540      0    0    0 #  c3/C
  20    1   2    0.104800   -0.419396920    -10.239696920    4.044798460      0    0    0 #  c2/C
  21    1   7   -0.504300   -0.496696920    -9.279096920     2.952798460      0    0    0 #  nn/N
  22    1   8   -0.450600   -0.681296920    -11.590196920    3.652598460      0    0    0 #  oh/O
  23    1   5    0.053000   -1.164996920    -9.949696920     4.818598460      0    0    0 #  hc/H
  24    1   5    0.053000    0.626603080    -10.211996920    4.424198460      0    0    0 #  hc/H
  25    1   2    0.104800    0.550303080    -9.592196920     1.985998460      0    0    0 #  c2/C
  26    1   4    0.082700   -1.331596920    -8.332196920     2.858298460      0    0    0 #  cp/C
  27    1   4    0.026500   -0.036296920    -11.971096920    2.506698460      0    0    0 #  cp/C
  28    1   4    0.000000    0.568603080    -11.052396920    1.645098460      0    0    0 #  cp/C
  29    1   5    0.053000    0.369803080    -9.006996920     1.056698460      0    0    0 #  hc/H
  30    1   5    0.053000    1.532203080    -9.328096920     2.438598460      0    0    0 #  hc/H
  31    1   4   -0.126800   -1.838996920    -7.971696920     1.610098460      0    0    0 #  cp/C
  32    1   4   -0.126800   -1.743896920    -7.649296920     4.002498460      0    0    0 #  cp/C
  33    1   4    0.000000   -0.031596920    -13.332796920    2.208298460      0    0    0 #  cp/C
  34    1   4   -0.126800    1.215003080    -11.518896920    0.492798460      0    0    0 #  cp/C
  35    1   4   -0.126800   -2.758796920    -6.928296920     1.505998460      0    0    0 #  cp/C
  36    1   5    0.126800   -1.513796920    -8.510296920     0.707798460      0    0    0 #  hc/H
  37    1   4   -0.126800   -2.663796920    -6.605896920     3.898398460      0    0    0 #  cp/C
  38    1   5    0.126800   -1.343696920    -7.933596920     4.986898460      0    0    0 #  hc/H
  39    1   4   -0.126800    0.604303080    -13.789896920    1.054398460      0    0    0 #  cp/C
  40    1   2    0.104800   -0.419396920    -17.239696920    4.044798460      0    0    0 #  c2/C

Bonds

  1   6     1     2  
  2   6     1     3  
  3   3    20     1  
  4   6     2     5  
  5   9     2     6  
  6   6     3     7  
  7   7     3     8  
  8   10    4    22  
  9   6     5     9  
 10   3    10     5  
 11   10   11     6  
 12   6     7     9  
 13   2    12     7  
 14   7     9    13  
 15   5    10    14  
 16   4    10    15  
 17   4    10    16  
 18   2    12    17  
 19   1    12    18  
 20   1    12    19  
 21   5    20    21  