HEADER,  PEEK.mol2  read w/ mol2SYBYL2lmp > atom_typing v1.11 / 14 April 2025 w/PCFF-IFF atom-types > all2lmp: v1.22 / 14 April 2025  Class: 2 > bond_react_merge: v1.17 / 14 April 2025 datafile (filetag: data1)

36 atoms
38 bonds
59 angles
86 dihedrals
19 impropers

8 atom types
8 bond types
9 angle types
13 dihedral types
5 improper types

-7.093736111 6.868163889 xlo xhi
-2.996825000 3.552975000 ylo yhi
-3.647511111 3.339988889 zlo zhi

Atom Type Labels

 1  c_0
 2  cp
 3  h 
 4  hc
 5  ho
 6  o_1
 7  oc
 8  oh

Bond Type Labels

 1  c_0-cp
 2  c_0-o_1
 3  cp-cp
 4  cp-hc
 5  cp-oc
 6  cp-oh
 7  h-h
 8  ho-oh

Angle Type Labels

 1  c_0-cp-cp
 2  cp-c_0-cp
 3  cp-c_0-o_1
 4  cp-cp-cp
 5  cp-cp-hc
 6  cp-cp-oc
 7  cp-cp-oh
 8  cp-oc-cp
 9  cp-oh-ho

Dihedral Type Labels

 1  c_0-cp-cp-cp
 2  c_0-cp-cp-hc
 3  cp-c_0-cp-cp
 4  cp-cp-cp-cp
 5  cp-cp-cp-hc
 6  cp-cp-cp-oc
 7  cp-cp-cp-oh
 8  cp-cp-oc-cp
 9  cp-cp-oh-ho
10  hc-cp-cp-hc
11  hc-cp-cp-oc
12  hc-cp-cp-oh
13  o_1-c_0-cp-cp

Improper Type Labels

 1  c_0-cp-cp-cp-nb==3
 2  cp-c_0-cp-o_1-nb==3
 3  cp-cp-cp-hc-nb==3
 4  cp-cp-cp-oc-nb==3
 5  cp-cp-cp-oh-nb==3

Masses

 1   12.01115  # c_0
 2   12.01115  # cp
 3   1.00797   # h
 4   1.00797   # hc
 5   1.00797   # ho
 6   15.99940  # o_1
 7   15.99940  # oc
 8   15.99940  # oh

Pair Coeffs  # lj/class2/coul/long

 1        0.12000000      3.30800000 # c_0
 2        0.06400000      4.01000000 # cp
 3        0.02000000      2.30000000 # h
 4        0.02000000      2.30000000 # hc
 5        0.01300000      1.09800000 # ho
 6        0.26700000      3.30000000 # o_1
 7        0.24000000      3.53500000 # oc
 8        0.24000000      3.53500000 # oh

Bond Coeffs  # class2

 1        1.48900000    339.35740000   -655.72360000    670.23620000                 # c_0       cp   
 2        1.21600000    823.79480000  -1878.79400000   2303.53110000                 # c_0      o_1   
 3        1.41700000    470.83610000   -627.61790000   1327.63450000                 # cp        cp   
 4        1.09820000    372.82510000   -803.45260000    894.31730000                 # cp        hc   
 5        1.37680000    428.87980000   -738.23510000   1114.96550000                 # cp        oc   
 6        1.37680000    428.87980000   -738.23510000   1114.96550000                 # cp        oh   
 7        0.74140000    414.00000000      0.00000000      0.00000000                 # h          h   
 8        0.96500000    532.50620000  -1282.90500000   2004.76580000                 # ho        oh   

Angle Coeffs  # class2

 1      108.40000000     43.95940000     -8.39240000     -9.33790000 # c_0      cp       cp   
 2      110.58840000     34.62140000     -7.09390000     -7.40320000 # cp      c_0       cp   
 3      119.30000000     65.10160000    -17.97660000      0.00000000 # cp      c_0      o_1   
 4      118.90000000     61.02260000    -34.99310000      0.00000000 # cp       cp       cp   
 5      117.94000000     35.15580000    -12.46820000      0.00000000 # cp       cp       hc   
 6      123.42000000     73.67810000    -21.67870000      0.00000000 # cp       cp       oc   
 7      123.42000000     73.67810000    -21.67870000      0.00000000 # cp       cp       oh   
 8      109.50000000     60.00000000      0.00000000      0.00000000 # cp       oc       cp   
 9      108.19000000     53.12500000     -8.50160000      0.00000000 # cp       oh       ho   

Dihedral Coeffs  # class2

 1        0.00000000      0.00000000      4.62820000      0.00000000      0.00000000      0.00000000 # c_0      cp      cp       cp   
 2        0.00000000      0.00000000      2.16700000      0.00000000      0.00000000      0.00000000 # c_0      cp      cp       hc   
 3        0.00000000      0.00000000      2.50000000      0.00000000      0.00000000      0.00000000 # cp      c_0      cp       cp   
 4        8.36670000      0.00000000      1.19320000      0.00000000      0.00000000      0.00000000 # cp       cp      cp       cp   
 5        0.00000000      0.00000000      3.96610000      0.00000000      0.00000000      0.00000000 # cp       cp      cp       hc   
 6        0.00000000      0.00000000      4.84980000      0.00000000      0.00000000      0.00000000 # cp       cp      cp       oc   
 7        0.00000000      0.00000000      4.84980000      0.00000000      0.00000000      0.00000000 # cp       cp      cp       oh   
 8        0.00000000      0.00000000      1.80000000      0.00000000      0.00000000      0.00000000 # cp       cp      oc       cp   
 9       -0.69000000      0.00000000      0.50970000      0.00000000      0.00950000      0.00000000 # cp       cp      oh       ho   
10        0.00000000      0.00000000      1.87690000      0.00000000      0.00000000      0.00000000 # hc       cp      cp       hc   
11        0.00000000      0.00000000      1.72340000      0.00000000      0.00000000      0.00000000 # hc       cp      cp       oc   
12        0.00000000      0.00000000      1.72340000      0.00000000      0.00000000      0.00000000 # hc       cp      cp       oh   
13        0.00000000      0.00000000      0.90630000      0.00000000      0.00000000      0.00000000 # o_1     c_0      cp       cp   

Improper Coeffs  # class2

 1       10.00000000      0.00000000 # c_0      cp      cp      cp    nb==3   
 2       38.79490000      0.00000000 # cp      c_0      cp     o_1    nb==3   
 3        4.89120000      0.00000000 # cp       cp      cp      hc    nb==3   
 4       13.04210000      0.00000000 # cp       cp      cp      oc    nb==3   
 5       13.04210000      0.00000000 # cp       cp      cp      oh    nb==3   

BondBond Coeffs  # class2

 1        0.00000000      1.48900000      1.41700000 # c_0      cp       cp   
 2        0.00000000      1.48900000      1.48900000 # cp      c_0       cp   
 3        0.00000000      1.48900000      1.21600000 # cp      c_0      o_1   
 4       68.28560000      1.41700000      1.41700000 # cp       cp       cp   
 5        1.07950000      1.41700000      1.09820000 # cp       cp       hc   
 6       48.47540000      1.41700000      1.37680000 # cp       cp       oc   
 7       48.47540000      1.41700000      1.37680000 # cp       cp       oh   
 8        0.00000000      1.37680000      1.37680000 # cp       oc       cp   
 9       20.65770000      1.37680000      0.96500000 # cp       oh       ho   

BondAngle Coeffs  # class2

 1        0.00000000      0.00000000      1.48900000      1.41700000 # c_0      cp       cp   
 2        0.00000000      0.00000000      1.48900000      1.48900000 # cp      c_0       cp   
 3        0.00000000      0.00000000      1.48900000      1.21600000 # cp      c_0      o_1   
 4       28.87080000     28.87080000      1.41700000      1.41700000 # cp       cp       cp   
 5       20.00330000     24.21830000      1.41700000      1.09820000 # cp       cp       hc   
 6       58.47900000    107.68060000      1.41700000      1.37680000 # cp       cp       oc   
 7       58.47900000    107.68060000      1.41700000      1.37680000 # cp       cp       oh   
 8        0.00000000      0.00000000      1.37680000      1.37680000 # cp       oc       cp   
 9       53.86140000     23.92240000      1.37680000      0.96500000 # cp       oh       ho   

AngleAngleTorsion Coeffs  # class2

 1        0.00000000    108.40000000    118.90000000 # c_0      cp      cp       cp   
 2        0.00000000    108.40000000    117.94000000 # c_0      cp      cp       hc   
 3        0.00000000    110.58840000    108.40000000 # cp      c_0      cp       cp   
 4        0.00000000    118.90000000    118.90000000 # cp       cp      cp       cp   
 5       -4.81410000    118.90000000    117.94000000 # cp       cp      cp       hc   
 6      -21.02470000    118.90000000    123.42000000 # cp       cp      cp       oc   
 7      -21.02470000    118.90000000    123.42000000 # cp       cp      cp       oh   
 8        0.00000000    123.42000000    109.50000000 # cp       cp      oc       cp   
 9       -4.60720000    123.42000000    108.19000000 # cp       cp      oh       ho   
10        0.35980000    117.94000000    117.94000000 # hc       cp      cp       hc   
11        4.22960000    117.94000000    123.42000000 # hc       cp      cp       oc   
12        4.22960000    117.94000000    123.42000000 # hc       cp      cp       oh   
13        0.00000000    119.30000000    108.40000000 # o_1     c_0      cp       cp   

EndBondTorsion Coeffs  # class2

 1        0.00000000      0.00000000      0.00000000      0.00000000      0.00000000      0.00000000      1.48900000      1.41700000 # c_0      cp      cp       cp   
 2        0.00000000      0.00000000      0.00000000      0.00000000      0.00000000      0.00000000      1.48900000      1.09820000 # c_0      cp      cp       hc   
 3        0.00000000      0.00000000      0.00000000      0.00000000      0.00000000      0.00000000      1.48900000      1.41700000 # cp      c_0      cp       cp   
 4       -0.11850000      6.32040000      0.00000000     -0.11850000      6.32040000      0.00000000      1.41700000      1.41700000 # cp       cp      cp       cp   
 5        0.00000000     -6.89580000      0.00000000      0.00000000     -0.46690000      0.00000000      1.41700000      1.09820000 # cp       cp      cp       hc   
 6        0.00000000      0.26550000      0.00000000      0.00000000      4.89050000      0.00000000      1.41700000      1.37680000 # cp       cp      cp       oc   
 7        0.00000000      0.26550000      0.00000000      0.00000000      4.89050000      0.00000000      1.41700000      1.37680000 # cp       cp      cp       oh   
 8        0.00000000      0.00000000      0.00000000      0.00000000      0.00000000      0.00000000      1.41700000      1.37680000 # cp       cp      oc       cp   
 9        0.90000000     -1.34560000      1.19000000      3.41320000      0.58730000     -0.13230000      1.41700000      0.96500000 # cp       cp      oh       ho   
10        0.00000000     -0.68900000      0.00000000      0.00000000     -0.68900000      0.00000000      1.09820000      1.09820000 # hc       cp      cp       hc   
11        0.00000000     -1.58670000      0.00000000      0.00000000      4.26410000      0.00000000      1.09820000      1.37680000 # hc       cp      cp       oc   
12        0.00000000     -1.58670000      0.00000000      0.00000000      4.26410000      0.00000000      1.09820000      1.37680000 # hc       cp      cp       oh   
13        0.00000000      0.00000000      0.00000000      0.00000000      0.00000000      0.00000000      1.21600000      1.41700000 # o_1     c_0      cp       cp   

MiddleBondTorsion Coeffs  # class2

 1        0.00000000      0.00000000      0.00000000      1.41700000 # c_0      cp      cp       cp   
 2        0.00000000      0.00000000      0.00000000      1.41700000 # c_0      cp      cp       hc   
 3        0.00000000      0.00000000      0.00000000      1.48900000 # cp      c_0      cp       cp   
 4       27.59890000     -2.31200000      0.00000000      1.41700000 # cp       cp      cp       cp   
 5        0.00000000     -1.15210000      0.00000000      1.41700000 # cp       cp      cp       hc   
 6        0.00000000      4.82550000      0.00000000      1.41700000 # cp       cp      cp       oc   
 7        0.00000000      4.82550000      0.00000000      1.41700000 # cp       cp      cp       oh   
 8        0.00000000      0.00000000      0.00000000      1.37680000 # cp       cp      oc       cp   
 9        1.15800000      3.26970000      3.51320000      1.37680000 # cp       cp      oh       ho   
10        0.00000000      4.82280000      0.00000000      1.41700000 # hc       cp      cp       hc   
11        0.00000000      5.54320000      0.00000000      1.41700000 # hc       cp      cp       oc   
12        0.00000000      5.54320000      0.00000000      1.41700000 # hc       cp      cp       oh   
13        0.00000000      0.00000000      0.00000000      1.48900000 # o_1     c_0      cp       cp   

BondBond13 Coeffs  # class2

 1        0.00000000      1.48900000      1.41700000 # c_0      cp      cp       cp   
 2        0.00000000      1.48900000      1.09820000 # c_0      cp      cp       hc   
 3        0.00000000      1.48900000      1.41700000 # cp      c_0      cp       cp   
 4       53.00000000      1.41700000      1.41700000 # cp       cp      cp       cp   
 5       -6.27410000      1.41700000      1.09820000 # cp       cp      cp       hc   
 6       -2.24360000      1.41700000      1.37680000 # cp       cp      cp       oc   
 7       -2.24360000      1.41700000      1.37680000 # cp       cp      cp       oh   
 8        0.00000000      1.41700000      1.37680000 # cp       cp      oc       cp   
 9        1.15900000      1.41700000      0.96500000 # cp       cp      oh       ho   
10       -1.70770000      1.09820000      1.09820000 # hc       cp      cp       hc   
11        2.05170000      1.09820000      1.37680000 # hc       cp      cp       oc   
12        2.05170000      1.09820000      1.37680000 # hc       cp      cp       oh   
13        0.00000000      1.21600000      1.41700000 # o_1     c_0      cp       cp   

AngleTorsion Coeffs  # class2

 1        0.00000000      0.00000000      0.00000000      0.00000000      0.00000000      0.00000000    108.40000000    118.90000000 # c_0      cp      cp       cp   
 2        0.00000000      0.00000000      0.00000000      0.00000000      0.00000000      0.00000000    108.40000000    117.94000000 # c_0      cp      cp       hc   
 3        0.00000000      0.00000000      0.00000000      0.00000000      0.00000000      0.00000000    110.58840000    108.40000000 # cp      c_0      cp       cp   
 4        1.97670000      1.02390000      0.00000000      1.97670000      1.02390000      0.00000000    118.90000000    118.90000000 # cp       cp      cp       cp   
 5        0.00000000      2.50140000      0.00000000      0.00000000      2.71470000      0.00000000    118.90000000    117.94000000 # cp       cp      cp       hc   
 6        0.00000000     10.01550000      0.00000000      0.00000000      1.74040000      0.00000000    118.90000000    123.42000000 # cp       cp      cp       oc   
 7        0.00000000     10.01550000      0.00000000      0.00000000      1.74040000      0.00000000    118.90000000    123.42000000 # cp       cp      cp       oh   
 8        0.00000000      0.00000000      0.00000000      0.00000000      0.00000000      0.00000000    123.42000000    109.50000000 # cp       cp      oc       cp   
 9       -5.13600000     -1.01220000      0.00000000      4.68520000      0.02300000     -0.59800000    123.42000000    108.19000000 # cp       cp      oh       ho   
10        0.00000000      2.45010000      0.00000000      0.00000000      2.45010000      0.00000000    117.94000000    117.94000000 # hc       cp      cp       hc   
11        0.00000000      1.87290000      0.00000000      0.00000000      2.57060000      0.00000000    117.94000000    123.42000000 # hc       cp      cp       oc   
12        0.00000000      1.87290000      0.00000000      0.00000000      2.57060000      0.00000000    117.94000000    123.42000000 # hc       cp      cp       oh   
13        0.00000000      0.00000000      0.00000000      0.00000000      0.00000000      0.00000000    119.30000000    108.40000000 # o_1     c_0      cp       cp   

AngleAngle Coeffs  # class2

 1        0.00000000      0.00000000      0.00000000    108.40000000    118.90000000    108.40000000 # c_0      cp      cp      cp    nb==3   
 2        0.00000000      0.00000000      0.00000000    110.58840000    119.30000000    119.30000000 # cp      c_0      cp     o_1    nb==3   
 3        0.00000000      0.00000000      0.00000000    118.90000000    117.94000000    117.94000000 # cp       cp      cp      hc    nb==3   
 4        0.00000000      0.00000000      0.00000000    118.90000000    123.42000000    123.42000000 # cp       cp      cp      oc    nb==3   
 5        0.00000000      0.00000000      0.00000000    118.90000000    123.42000000    123.42000000 # cp       cp      cp      oh    nb==3   

Atoms # full

  1     1   2   0.026500   -5.225336111    -0.054525000     0.491888889   0  0  0  # cp/C
  2     1   2  -0.126800   -4.645136111    -0.340125000     1.669288889   0  0  0  # cp/C
  3     1   2  -0.126800   -3.568136111    -1.136925000     1.740288889   0  0  0  # cp/C
  4     1   2  -0.126800   -3.608736111    -1.398325000    -0.535411111   0  0  0  # cp/C
  5     1   2  -0.126800   -4.686036111    -0.602225000    -0.609511111   0  0  0  # cp/C
  6     1   2   0.026500   -0.733136111    -1.811525000     0.709688889   0  0  0  # cp/C
  7     1   2  -0.126800   -0.115636111    -1.457925000    -0.430211111   0  0  0  # cp/C
  8     1   2  -0.126800    1.049663889    -0.790925000    -0.433711111   0  0  0  # cp/C
  9     1   2   0.000000    1.670363889    -0.416625000     0.703188889   0  0  0  # cp/C
  10    1   2  -0.126800    1.073763889    -0.827025000     1.843688889   0  0  0  # cp/C
  11    1   2  -0.126800   -0.092736111    -1.491325000     1.846788889   0  0  0  # cp/C
  12    1   2  -0.126800    2.700763889     1.457775000    -1.328311111   0  0  0  # cp/C
  13    1   2  -0.126800    3.268363889     2.170775000    -2.315011111   0  0  0  # cp/C
  14    1   2  -0.126800    4.575663889     2.458875000    -2.276411111   0  0  0  # cp/C
  15    1   2  -0.126800    5.294463889     2.044275000    -1.225411111   0  0  0  # cp/C
  16    1   2  -0.126800    4.712363889     1.334575000    -0.245211111   0  0  0  # cp/C
  17    1   1   0.396400    2.866763889     0.258975000     0.756588889   0  0  0  # c_0/C
  18    1   2   0.000000    3.406363889     0.984475000    -0.279511111   0  0  0  # cp/C
  19    1   7  -0.053000   -1.918536111    -2.496825000     0.712388889   0  0  0  # oc/O
  20    1   2   0.026500   -3.017936111    -1.683425000     0.639988889   0  0  0  # cp/C
  21    1   8  -0.450600   -6.318036111     0.751275000     0.411188889   0  0  0  # oh/O
  22    1   6  -0.396400    3.494963889     0.210675000     1.800688889   0  0  0  # o_1/O
  23    1   4   0.126800   -5.065136111     0.089675000     2.594288889   0  0  0  # hc/H
  24    1   4   0.126800   -3.124036111    -1.347525000     2.727788889   0  0  0  # hc/H
  25    1   4   0.126800   -3.197936111    -1.829425000    -1.464011111   0  0  0  # hc/H
  26    1   4   0.126800   -5.139036111    -0.392725000    -1.593211111   0  0  0  # hc/H
  27    1   4   0.126800   -0.569436111    -1.752525000    -1.392311111   0  0  0  # hc/H
  28    1   4   0.126800    1.493263889    -0.649325000    -1.430211111   0  0  0  # hc/H
  29    1   4   0.126800    1.496663889    -0.612825000     2.839988889   0  0  0  # hc/H
  30    1   4   0.126800   -0.542336111    -1.784325000     2.811188889   0  0  0  # hc/H
  31    1   4   0.126800    1.607663889     1.364475000    -1.404511111   0  0  0  # hc/H
  32    1   4   0.126800    2.653763889     2.554375000    -3.147511111   0  0  0  # hc/H
  33    1   4   0.126800    5.044263889     3.052975000    -3.078211111   0  0  0  # hc/H
  34    1   4   0.126800    6.368163889     2.292475000    -1.168911111   0  0  0  # hc/H
  35    1   4   0.126800    5.383763889     1.030875000     0.575888889   0  0  0  # hc/H
  36    1   5   0.424100   -6.593736111     0.819875000    -0.517211111   0  0  0  # ho/H

Bonds

1  3  1  2 
2  3  1  5 
3  6  1  21
4  3  2  3 
5  4  2  23
6  3  3  20
7  4  3  24
8  3  4  5 
9  3  4  20
10 4  4  25
11 4  5  26
12 3  6  7 
13 3  6  11
14 5  6  19
15 3  7  8 
16 4  7  27
17 3  8  9 
18 4  8  28
19 3  9  10
20 1  17 9 
21 3  10 11
22 4  10 29
23 4  11 30
24 3  12 13
25 3  12 18
26 4  12 31
27 3  13 14
28 4  13 32
29 3  14 15
30 4  14 33
31 3  15 16
32 4  15 34
33 3  16 18
34 4  16 35
35 1  17 18
36 2  17 22
37 5  20 19
38 8  36 21

Angles

1  7  5  1  21
2  7  2  1  21
3  4  2  1  5 
4  5  1  2  23
5  4  1  2  3 
6  5  3  2  23
7  5  2  3  24
8  5  20 3  24
9  4  2  3  20
10 4  5  4  20
11 5  5  4  25
12 5  20 4  25
13 4  1  5  4 
14 5  4  5  26
15 5  1  5  26
16 6  7  6  19
17 4  7  6  11
18 6  11 6  19
19 5  6  7  27
20 4  6  7  8 
21 5  8  7  27
22 5  7  8  28
23 4  7  8  9 
24 5  9  8  28
25 1  17 9  8 
26 1  17 9  10
27 4  8  9  10
28 4  9  10 11
29 5  9  10 29
30 5  11 10 29
31 5  10 11 30
32 5  6  11 30
33 4  6  11 10
34 5  13 12 31
35 5  18 12 31
36 4  13 12 18
37 5  12 13 32
38 5  14 13 32
39 4  12 13 14
40 5  13 14 33
41 5  15 14 33
42 4  13 14 15
43 5  16 15 34
44 4  14 15 16
45 5  14 15 34
46 4  15 16 18
47 5  15 16 35
48 5  18 16 35
49 2  9  17 18
50 3  18 17 22
51 3  9  17 22
52 4  12 18 16
53 1  17 18 16
54 1  17 18 12
55 8  6  19 20
56 4  3  20 4 
57 6  3  20 19
58 6  4  20 19
59 9  1  21 36

Dihedrals

1  5  2  1  5  26
2  9  2  1  21 36
3  5  5  1  2  23
4  12 26 5  1  21
5  12 23 2  1  21
6  9  5  1  21 36
7  4  2  1  5  4 
8  4  3  2  1  5 
9  4  1  2  3  20
10 7  3  2  1  21
11 10 23 2  3  24
12 5  1  2  3  24
13 6  2  3  20 19
14 4  2  3  20 4 
15 5  20 3  2  23
16 6  5  4  20 19
17 5  20 4  5  26
18 10 25 4  5  26
19 5  1  5  4  25
20 4  1  5  4  20
21 7  4  5  1  21
22 11 27 7  6  19
23 8  11 6  19 20
24 4  7  6  11 10
25 5  11 6  7  27
26 8  7  6  19 20
27 5  7  6  11 30
28 11 30 11 6  19
29 10 27 7  8  28
30 6  8  7  6  19
31 5  6  7  8  28
32 4  8  7  6  11
33 4  6  7  8  9 
34 1  17 9  8  7 
35 5  9  8  7  27
36 4  7  8  9  10
37 4  8  9  10 11
38 5  8  9  10 29
39 2  17 9  8  28
40 3  18 17 9  10
41 13 22 17 9  10
42 3  18 17 9  8 
43 2  17 9  10 29
44 13 22 17 9  8 
45 5  10 9  8  28
46 1  17 9  10 11
47 10 29 10 11 30
48 5  9  10 11 30
49 4  6  11 10 9 
50 6  10 11 6  19
51 5  6  11 10 29
52 10 31 12 13 32
53 1  17 18 12 13
54 4  13 12 18 16
55 5  18 12 13 32
56 4  14 13 12 18
57 4  12 13 14 15
58 10 32 13 14 33
59 5  12 13 14 33
60 5  14 13 12 31
61 5  15 14 13 32
62 4  13 14 15 16
63 5  13 14 15 34
64 10 33 14 15 34
65 5  14 15 16 35
66 10 34 15 16 35
67 5  16 15 14 33
68 4  14 15 16 18
69 5  18 16 15 34
70 1  17 18 16 15
71 3  9  17 18 16
72 3  9  17 18 12
73 2  17 18 12 31
74 5  16 18 12 31
75 13 22 17 18 12
76 13 22 17 18 16
77 4  12 18 16 15
78 5  12 18 16 35
79 2  17 18 16 35
80 11 24 3  20 19
81 4  3  20 4  5 
82 5  3  20 4  25
83 8  4  20 19 6 
84 11 25 4  20 19
85 8  3  20 19 6 
86 5  4  20 3  24

Impropers

1  5  2  1  5  21
2  3  1  2  3  23
3  3  2  3  20 24
4  3  5  4  20 25
5  3  1  5  4  26
6  4  7  6  11 19
7  3  6  7  8  27
8  3  7  8  9  28
9  1  17 9  8  10
10 3  9  10 11 29
11 3  6  11 10 30
12 3  13 12 18 31
13 3  12 13 14 32
14 3  13 14 15 33
15 3  14 15 16 34
16 3  15 16 18 35
17 2  9  17 18 22
18 1  17 18 12 16
19 4  3  20 4  19
