HEADER,  post.mol2  read w/ mol2SYBYL2lmp > atom_typing v1.11 / 14 April 2025 w/PCFF-IFF atom-types > all2lmp: v1.22 / 14 April 2025  Class: 2 > bond_react_merge: v1.17 / 14 April 2025 datafile (filetag: post1)

27 atoms
27 bonds
40 angles
56 dihedrals
13 impropers

8 atom types
8 bond types
9 angle types
13 dihedral types
5 improper types

-5.401797222 12.582102778 xlo xhi
-7.593500000 10.017200000 ylo yhi
-6.132104167 4.300895833 zlo zhi

Atom Type Labels

 1  c_0
 2  cp
 3  h 
 4  hc
 5  ho
 6  o_1
 7  oc
 8  oh

Bond Type Labels

 1  c_0-cp
 2  c_0-o_1
 3  cp-cp
 4  cp-hc
 5  cp-oc
 6  cp-oh
 7  h-h
 8  ho-oh

Angle Type Labels

 1  c_0-cp-cp
 2  cp-c_0-cp
 3  cp-c_0-o_1
 4  cp-cp-cp
 5  cp-cp-hc
 6  cp-cp-oc
 7  cp-cp-oh
 8  cp-oc-cp
 9  cp-oh-ho

Dihedral Type Labels

 1  c_0-cp-cp-cp
 2  c_0-cp-cp-hc
 3  cp-c_0-cp-cp
 4  cp-cp-cp-cp
 5  cp-cp-cp-hc
 6  cp-cp-cp-oc
 7  cp-cp-cp-oh
 8  cp-cp-oc-cp
 9  cp-cp-oh-ho
10  hc-cp-cp-hc
11  hc-cp-cp-oc
12  hc-cp-cp-oh
13  o_1-c_0-cp-cp

Improper Type Labels

 1  c_0-cp-cp-cp-nb==3
 2  cp-c_0-cp-o_1-nb==3
 3  cp-cp-cp-hc-nb==3
 4  cp-cp-cp-oc-nb==3
 5  cp-cp-cp-oh-nb==3

Masses

 1   12.01115  # c_0
 2   12.01115  # cp
 3   1.00797   # h
 4   1.00797   # hc
 5   1.00797   # ho
 6   15.99940  # o_1
 7   15.99940  # oc
 8   15.99940  # oh

Pair Coeffs  # lj/class2/coul/long

 1        0.12000000      3.30800000 # c_0
 2        0.06400000      4.01000000 # cp
 3        0.02000000      2.30000000 # h
 4        0.02000000      2.30000000 # hc
 5        0.01300000      1.09800000 # ho
 6        0.26700000      3.30000000 # o_1
 7        0.24000000      3.53500000 # oc
 8        0.24000000      3.53500000 # oh

Bond Coeffs  # class2

 1        1.48900000    339.35740000   -655.72360000    670.23620000                 # c_0       cp   
 2        1.21600000    823.79480000  -1878.79400000   2303.53110000                 # c_0      o_1   
 3        1.41700000    470.83610000   -627.61790000   1327.63450000                 # cp        cp   
 4        1.09820000    372.82510000   -803.45260000    894.31730000                 # cp        hc   
 5        1.37680000    428.87980000   -738.23510000   1114.96550000                 # cp        oc   
 6        1.37680000    428.87980000   -738.23510000   1114.96550000                 # cp        oh   
 7        0.74140000    414.00000000      0.00000000      0.00000000                 # h          h   
 8        0.96500000    532.50620000  -1282.90500000   2004.76580000                 # ho        oh   

Angle Coeffs  # class2

 1      108.40000000     43.95940000     -8.39240000     -9.33790000 # c_0      cp       cp   
 2      110.58840000     34.62140000     -7.09390000     -7.40320000 # cp      c_0       cp   
 3      119.30000000     65.10160000    -17.97660000      0.00000000 # cp      c_0      o_1   
 4      118.90000000     61.02260000    -34.99310000      0.00000000 # cp       cp       cp   
 5      117.94000000     35.15580000    -12.46820000      0.00000000 # cp       cp       hc   
 6      123.42000000     73.67810000    -21.67870000      0.00000000 # cp       cp       oc   
 7      123.42000000     73.67810000    -21.67870000      0.00000000 # cp       cp       oh   
 8      109.50000000     60.00000000      0.00000000      0.00000000 # cp       oc       cp   
 9      108.19000000     53.12500000     -8.50160000      0.00000000 # cp       oh       ho   

Dihedral Coeffs  # class2

 1        0.00000000      0.00000000      4.62820000      0.00000000      0.00000000      0.00000000 # c_0      cp      cp       cp   
 2        0.00000000      0.00000000      2.16700000      0.00000000      0.00000000      0.00000000 # c_0      cp      cp       hc   
 3        0.00000000      0.00000000      2.50000000      0.00000000      0.00000000      0.00000000 # cp      c_0      cp       cp   
 4        8.36670000      0.00000000      1.19320000      0.00000000      0.00000000      0.00000000 # cp       cp      cp       cp   
 5        0.00000000      0.00000000      3.96610000      0.00000000      0.00000000      0.00000000 # cp       cp      cp       hc   
 6        0.00000000      0.00000000      4.84980000      0.00000000      0.00000000      0.00000000 # cp       cp      cp       oc   
 7        0.00000000      0.00000000      4.84980000      0.00000000      0.00000000      0.00000000 # cp       cp      cp       oh   
 8        0.00000000      0.00000000      1.80000000      0.00000000      0.00000000      0.00000000 # cp       cp      oc       cp   
 9       -0.69000000      0.00000000      0.50970000      0.00000000      0.00950000      0.00000000 # cp       cp      oh       ho   
10        0.00000000      0.00000000      1.87690000      0.00000000      0.00000000      0.00000000 # hc       cp      cp       hc   
11        0.00000000      0.00000000      1.72340000      0.00000000      0.00000000      0.00000000 # hc       cp      cp       oc   
12        0.00000000      0.00000000      1.72340000      0.00000000      0.00000000      0.00000000 # hc       cp      cp       oh   
13        0.00000000      0.00000000      0.90630000      0.00000000      0.00000000      0.00000000 # o_1     c_0      cp       cp   

Improper Coeffs  # class2

 1       10.00000000      0.00000000 # c_0      cp      cp      cp    nb==3   
 2       38.79490000      0.00000000 # cp      c_0      cp     o_1    nb==3   
 3        4.89120000      0.00000000 # cp       cp      cp      hc    nb==3   
 4       13.04210000      0.00000000 # cp       cp      cp      oc    nb==3   
 5       13.04210000      0.00000000 # cp       cp      cp      oh    nb==3   

BondBond Coeffs  # class2

 1        0.00000000      1.48900000      1.41700000 # c_0      cp       cp   
 2        0.00000000      1.48900000      1.48900000 # cp      c_0       cp   
 3        0.00000000      1.48900000      1.21600000 # cp      c_0      o_1   
 4       68.28560000      1.41700000      1.41700000 # cp       cp       cp   
 5        1.07950000      1.41700000      1.09820000 # cp       cp       hc   
 6       48.47540000      1.41700000      1.37680000 # cp       cp       oc   
 7       48.47540000      1.41700000      1.37680000 # cp       cp       oh   
 8        0.00000000      1.37680000      1.37680000 # cp       oc       cp   
 9       20.65770000      1.37680000      0.96500000 # cp       oh       ho   

BondAngle Coeffs  # class2

 1        0.00000000      0.00000000      1.48900000      1.41700000 # c_0      cp       cp   
 2        0.00000000      0.00000000      1.48900000      1.48900000 # cp      c_0       cp   
 3        0.00000000      0.00000000      1.48900000      1.21600000 # cp      c_0      o_1   
 4       28.87080000     28.87080000      1.41700000      1.41700000 # cp       cp       cp   
 5       20.00330000     24.21830000      1.41700000      1.09820000 # cp       cp       hc   
 6       58.47900000    107.68060000      1.41700000      1.37680000 # cp       cp       oc   
 7       58.47900000    107.68060000      1.41700000      1.37680000 # cp       cp       oh   
 8        0.00000000      0.00000000      1.37680000      1.37680000 # cp       oc       cp   
 9       53.86140000     23.92240000      1.37680000      0.96500000 # cp       oh       ho   

AngleAngleTorsion Coeffs  # class2

 1        0.00000000    108.40000000    118.90000000 # c_0      cp      cp       cp   
 2        0.00000000    108.40000000    117.94000000 # c_0      cp      cp       hc   
 3        0.00000000    110.58840000    108.40000000 # cp      c_0      cp       cp   
 4        0.00000000    118.90000000    118.90000000 # cp       cp      cp       cp   
 5       -4.81410000    118.90000000    117.94000000 # cp       cp      cp       hc   
 6      -21.02470000    118.90000000    123.42000000 # cp       cp      cp       oc   
 7      -21.02470000    118.90000000    123.42000000 # cp       cp      cp       oh   
 8        0.00000000    123.42000000    109.50000000 # cp       cp      oc       cp   
 9       -4.60720000    123.42000000    108.19000000 # cp       cp      oh       ho   
10        0.35980000    117.94000000    117.94000000 # hc       cp      cp       hc   
11        4.22960000    117.94000000    123.42000000 # hc       cp      cp       oc   
12        4.22960000    117.94000000    123.42000000 # hc       cp      cp       oh   
13        0.00000000    119.30000000    108.40000000 # o_1     c_0      cp       cp   

EndBondTorsion Coeffs  # class2

 1        0.00000000      0.00000000      0.00000000      0.00000000      0.00000000      0.00000000      1.48900000      1.41700000 # c_0      cp      cp       cp   
 2        0.00000000      0.00000000      0.00000000      0.00000000      0.00000000      0.00000000      1.48900000      1.09820000 # c_0      cp      cp       hc   
 3        0.00000000      0.00000000      0.00000000      0.00000000      0.00000000      0.00000000      1.48900000      1.41700000 # cp      c_0      cp       cp   
 4       -0.11850000      6.32040000      0.00000000     -0.11850000      6.32040000      0.00000000      1.41700000      1.41700000 # cp       cp      cp       cp   
 5        0.00000000     -6.89580000      0.00000000      0.00000000     -0.46690000      0.00000000      1.41700000      1.09820000 # cp       cp      cp       hc   
 6        0.00000000      0.26550000      0.00000000      0.00000000      4.89050000      0.00000000      1.41700000      1.37680000 # cp       cp      cp       oc   
 7        0.00000000      0.26550000      0.00000000      0.00000000      4.89050000      0.00000000      1.41700000      1.37680000 # cp       cp      cp       oh   
 8        0.00000000      0.00000000      0.00000000      0.00000000      0.00000000      0.00000000      1.41700000      1.37680000 # cp       cp      oc       cp   
 9        0.90000000     -1.34560000      1.19000000      3.41320000      0.58730000     -0.13230000      1.41700000      0.96500000 # cp       cp      oh       ho   
10        0.00000000     -0.68900000      0.00000000      0.00000000     -0.68900000      0.00000000      1.09820000      1.09820000 # hc       cp      cp       hc   
11        0.00000000     -1.58670000      0.00000000      0.00000000      4.26410000      0.00000000      1.09820000      1.37680000 # hc       cp      cp       oc   
12        0.00000000     -1.58670000      0.00000000      0.00000000      4.26410000      0.00000000      1.09820000      1.37680000 # hc       cp      cp       oh   
13        0.00000000      0.00000000      0.00000000      0.00000000      0.00000000      0.00000000      1.21600000      1.41700000 # o_1     c_0      cp       cp   

MiddleBondTorsion Coeffs  # class2

 1        0.00000000      0.00000000      0.00000000      1.41700000 # c_0      cp      cp       cp   
 2        0.00000000      0.00000000      0.00000000      1.41700000 # c_0      cp      cp       hc   
 3        0.00000000      0.00000000      0.00000000      1.48900000 # cp      c_0      cp       cp   
 4       27.59890000     -2.31200000      0.00000000      1.41700000 # cp       cp      cp       cp   
 5        0.00000000     -1.15210000      0.00000000      1.41700000 # cp       cp      cp       hc   
 6        0.00000000      4.82550000      0.00000000      1.41700000 # cp       cp      cp       oc   
 7        0.00000000      4.82550000      0.00000000      1.41700000 # cp       cp      cp       oh   
 8        0.00000000      0.00000000      0.00000000      1.37680000 # cp       cp      oc       cp   
 9        1.15800000      3.26970000      3.51320000      1.37680000 # cp       cp      oh       ho   
10        0.00000000      4.82280000      0.00000000      1.41700000 # hc       cp      cp       hc   
11        0.00000000      5.54320000      0.00000000      1.41700000 # hc       cp      cp       oc   
12        0.00000000      5.54320000      0.00000000      1.41700000 # hc       cp      cp       oh   
13        0.00000000      0.00000000      0.00000000      1.48900000 # o_1     c_0      cp       cp   

BondBond13 Coeffs  # class2

 1        0.00000000      1.48900000      1.41700000 # c_0      cp      cp       cp   
 2        0.00000000      1.48900000      1.09820000 # c_0      cp      cp       hc   
 3        0.00000000      1.48900000      1.41700000 # cp      c_0      cp       cp   
 4       53.00000000      1.41700000      1.41700000 # cp       cp      cp       cp   
 5       -6.27410000      1.41700000      1.09820000 # cp       cp      cp       hc   
 6       -2.24360000      1.41700000      1.37680000 # cp       cp      cp       oc   
 7       -2.24360000      1.41700000      1.37680000 # cp       cp      cp       oh   
 8        0.00000000      1.41700000      1.37680000 # cp       cp      oc       cp   
 9        1.15900000      1.41700000      0.96500000 # cp       cp      oh       ho   
10       -1.70770000      1.09820000      1.09820000 # hc       cp      cp       hc   
11        2.05170000      1.09820000      1.37680000 # hc       cp      cp       oc   
12        2.05170000      1.09820000      1.37680000 # hc       cp      cp       oh   
13        0.00000000      1.21600000      1.41700000 # o_1     c_0      cp       cp   

AngleTorsion Coeffs  # class2

 1        0.00000000      0.00000000      0.00000000      0.00000000      0.00000000      0.00000000    108.40000000    118.90000000 # c_0      cp      cp       cp   
 2        0.00000000      0.00000000      0.00000000      0.00000000      0.00000000      0.00000000    108.40000000    117.94000000 # c_0      cp      cp       hc   
 3        0.00000000      0.00000000      0.00000000      0.00000000      0.00000000      0.00000000    110.58840000    108.40000000 # cp      c_0      cp       cp   
 4        1.97670000      1.02390000      0.00000000      1.97670000      1.02390000      0.00000000    118.90000000    118.90000000 # cp       cp      cp       cp   
 5        0.00000000      2.50140000      0.00000000      0.00000000      2.71470000      0.00000000    118.90000000    117.94000000 # cp       cp      cp       hc   
 6        0.00000000     10.01550000      0.00000000      0.00000000      1.74040000      0.00000000    118.90000000    123.42000000 # cp       cp      cp       oc   
 7        0.00000000     10.01550000      0.00000000      0.00000000      1.74040000      0.00000000    118.90000000    123.42000000 # cp       cp      cp       oh   
 8        0.00000000      0.00000000      0.00000000      0.00000000      0.00000000      0.00000000    123.42000000    109.50000000 # cp       cp      oc       cp   
 9       -5.13600000     -1.01220000      0.00000000      4.68520000      0.02300000     -0.59800000    123.42000000    108.19000000 # cp       cp      oh       ho   
10        0.00000000      2.45010000      0.00000000      0.00000000      2.45010000      0.00000000    117.94000000    117.94000000 # hc       cp      cp       hc   
11        0.00000000      1.87290000      0.00000000      0.00000000      2.57060000      0.00000000    117.94000000    123.42000000 # hc       cp      cp       oc   
12        0.00000000      1.87290000      0.00000000      0.00000000      2.57060000      0.00000000    117.94000000    123.42000000 # hc       cp      cp       oh   
13        0.00000000      0.00000000      0.00000000      0.00000000      0.00000000      0.00000000    119.30000000    108.40000000 # o_1     c_0      cp       cp   

AngleAngle Coeffs  # class2

 1        0.00000000      0.00000000      0.00000000    108.40000000    118.90000000    108.40000000 # c_0      cp      cp      cp    nb==3   
 2        0.00000000      0.00000000      0.00000000    110.58840000    119.30000000    119.30000000 # cp      c_0      cp     o_1    nb==3   
 3        0.00000000      0.00000000      0.00000000    118.90000000    117.94000000    117.94000000 # cp       cp      cp      hc    nb==3   
 4        0.00000000      0.00000000      0.00000000    118.90000000    123.42000000    123.42000000 # cp       cp      cp      oc    nb==3   
 5        0.00000000      0.00000000      0.00000000    118.90000000    123.42000000    123.42000000 # cp       cp      cp      oh    nb==3   

Atoms # full

  1     1   2   0.026500   -2.977797222    -3.901300000     1.745895833   0  0  0  # cp/C
  2     1   2  -0.126800   -2.977897222    -5.296100000     1.745895833   0  0  0  # cp/C
  3     1   2  -0.126800   -1.769897222    -5.993500000     1.745995833   0  0  0  # cp/C
  4     1   2  -0.126800   -0.561897222    -3.901300000     1.745895833   0  0  0  # cp/C
  5     1   2  -0.126800   -1.769897222    -3.203900000     1.745895833   0  0  0  # cp/C
  6     1   7  -0.053000    0.611502778    -5.973600000     1.745995833   0  0  0  # oc/O
  7     1   2   0.026500   -0.561897222    -5.296100000     1.745995833   0  0  0  # cp/C
  8     1   2   0.000000   -2.933997222     2.836900000     0.633295833   0  0  0  # cp/C
  9     1   2  -0.126800   -4.040997222     0.241800000     2.894795833   0  0  0  # cp/C
  10    1   2  -0.126800   -4.235297222    -1.139400000     2.894795833   0  0  0  # cp/C
  11    1   2   0.026500   -3.962697222    -1.882000000     1.745895833   0  0  0  # cp/C
  12    1   2  -0.126800   -3.495897222    -1.243300000     0.597195833   0  0  0  # cp/C
  13    1   2  -0.126800   -3.301697222     0.137900000     0.597095833   0  0  0  # cp/C
  14    1   1   0.396400   -3.386097222     2.218300000     1.746095833   0  0  0  # c_0/C
  15    1   2   0.000000   -3.574297222     0.880500000     1.745995833   0  0  0  # cp/C
  16    1   6  -0.396400   -3.622197222     2.861400000     2.740995833   0  0  0  # o_1/O
  17    1   7  -0.053000   -4.151297222    -3.223800000     1.745895833   0  0  0  # oc/O
  18    1   4   0.126800   -3.930497222    -5.846100000     1.745795833   0  0  0  # hc/H
  19    1   4   0.126800   -1.769797222    -7.093500000     1.745995833   0  0  0  # hc/H
  20    1   4   0.126800    0.390802778    -3.351300000     1.745795833   0  0  0  # hc/H
  21    1   4   0.126800   -1.769897222    -2.103900000     1.745895833   0  0  0  # hc/H
  22    1   4   0.126800   -4.255897222     0.827400000     3.800795833   0  0  0  # hc/H
  23    1   4   0.126800   -4.603497222    -1.643000000     3.800795833   0  0  0  # hc/H
  24    1   4   0.126800   -3.280897222    -1.828900000    -0.308804167   0  0  0  # hc/H
  25    1   4   0.126800   -2.933697222     0.641500000    -0.308904167   0  0  0  # hc/H
  26    2   3   0.000000   12.082102778     1.344400000    -2.577904167   0  0  0  # h/H
  27    2   3   0.000000   11.442902778     1.079200000    -2.576904167   0  0  0  # h/H

Bonds

1  3  1  2 
2  3  1  5 
3  5  1  17
4  3  2  3 
5  4  2  18
6  3  3  7 
7  4  3  19
8  3  4  5 
9  3  4  7 
10 4  4  20
11 4  5  21
12 5  7  6 
13 1  14 8 
14 3  9  10
15 3  9  15
16 4  9  22
17 3  10 11
18 4  10 23
19 3  11 12
20 5  11 17
21 3  12 13
22 4  12 24
23 3  13 15
24 4  13 25
25 1  14 15
26 2  14 16
27 7  26 27

Angles

1  6  5  1  17
2  6  2  1  17
3  4  2  1  5 
4  5  1  2  18
5  4  1  2  3 
6  5  3  2  18
7  4  2  3  7 
8  5  7  3  19
9  5  2  3  19
10 4  5  4  7 
11 5  5  4  20
12 5  7  4  20
13 5  1  5  21
14 4  1  5  4 
15 5  4  5  21
16 4  3  7  4 
17 6  3  7  6 
18 6  4  7  6 
19 4  10 9  15
20 5  15 9  22
21 5  10 9  22
22 5  9  10 23
23 4  9  10 11
24 5  11 10 23
25 6  12 11 17
26 4  10 11 12
27 6  10 11 17
28 5  11 12 24
29 4  11 12 13
30 5  13 12 24
31 4  12 13 15
32 5  12 13 25
33 5  15 13 25
34 2  8  14 15
35 3  8  14 16
36 3  15 14 16
37 1  14 15 9 
38 1  14 15 13
39 4  9  15 13
40 8  1  17 11

Dihedrals

1  8  2  1  17 11
2  11 18 2  1  17
3  5  2  1  5  21
4  5  5  1  2  18
5  8  5  1  17 11
6  11 21 5  1  17
7  4  2  1  5  4 
8  4  3  2  1  5 
9  6  3  2  1  17
10 4  1  2  3  7 
11 10 18 2  3  19
12 5  1  2  3  19
13 6  2  3  7  6 
14 5  7  3  2  18
15 4  2  3  7  4 
16 5  7  4  5  21
17 6  5  4  7  6 
18 10 20 4  5  21
19 4  1  5  4  7 
20 5  1  5  4  20
21 6  4  5  1  17
22 11 20 4  7  6 
23 4  3  7  4  5 
24 11 19 3  7  6 
25 5  4  7  3  19
26 5  3  7  4  20
27 1  14 15 9  10
28 5  15 9  10 23
29 10 22 9  10 23
30 4  10 9  15 13
31 6  9  10 11 17
32 4  11 10 9  15
33 4  9  10 11 12
34 5  11 10 9  22
35 11 23 10 11 17
36 4  10 11 12 13
37 5  12 11 10 23
38 5  10 11 12 24
39 11 24 12 11 17
40 6  13 12 11 17
41 4  11 12 13 15
42 10 24 12 13 25
43 5  11 12 13 25
44 1  14 15 13 12
45 5  15 13 12 24
46 3  8  14 15 9 
47 3  8  14 15 13
48 2  14 15 9  22
49 5  9  15 13 25
50 13 16 14 15 9 
51 2  14 15 13 25
52 5  13 15 9  22
53 13 16 14 15 13
54 4  9  15 13 12
55 8  10 11 17 1 
56 8  12 11 17 1 

Impropers

1  4  2  1  5  17
2  3  1  2  3  18
3  3  2  3  7  19
4  3  5  4  7  20
5  3  1  5  4  21
6  4  3  7  4  6 
7  3  10 9  15 22
8  3  9  10 11 23
9  4  10 11 12 17
10 3  11 12 13 24
11 3  12 13 15 25
12 2  8  14 15 16
13 1  14 15 9  13
