bond_react_merge.py reduce or remove option used. Updating Header with new atomIDs > BondingIDs = [4, 22, 11, 17]; Reduce = [5, 5]; > bond_react_merge: v1.17 / 14 April 2025 datafile (filetag: pre1)

27 atoms
27 bonds
40 angles
54 dihedrals
13 impropers

8 atom types
8 bond types
9 angle types
13 dihedral types
5 improper types

-14.820497222 14.867902778 xlo xhi
-3.978400000 2.390200000 ylo yhi
-4.212497222 3.275302778 zlo zhi

Atom Type Labels

 1  c_0
 2  cp
 3  h 
 4  hc
 5  ho
 6  o_1
 7  oc
 8  oh

Bond Type Labels

 1  c_0-cp
 2  c_0-o_1
 3  cp-cp
 4  cp-hc
 5  cp-oc
 6  cp-oh
 7  h-h
 8  ho-oh

Angle Type Labels

 1  c_0-cp-cp
 2  cp-c_0-cp
 3  cp-c_0-o_1
 4  cp-cp-cp
 5  cp-cp-hc
 6  cp-cp-oc
 7  cp-cp-oh
 8  cp-oc-cp
 9  cp-oh-ho

Dihedral Type Labels

 1  c_0-cp-cp-cp
 2  c_0-cp-cp-hc
 3  cp-c_0-cp-cp
 4  cp-cp-cp-cp
 5  cp-cp-cp-hc
 6  cp-cp-cp-oc
 7  cp-cp-cp-oh
 8  cp-cp-oc-cp
 9  cp-cp-oh-ho
10  hc-cp-cp-hc
11  hc-cp-cp-oc
12  hc-cp-cp-oh
13  o_1-c_0-cp-cp

Improper Type Labels

 1  c_0-cp-cp-cp-nb==3
 2  cp-c_0-cp-o_1-nb==3
 3  cp-cp-cp-hc-nb==3
 4  cp-cp-cp-oc-nb==3
 5  cp-cp-cp-oh-nb==3

Masses

 1   12.01115  # c_0
 2   12.01115  # cp
 3   1.00797   # h
 4   1.00797   # hc
 5   1.00797   # ho
 6   15.99940  # o_1
 7   15.99940  # oc
 8   15.99940  # oh

Pair Coeffs  # lj/class2/coul/long

 1        0.12000000      3.30800000 # c_0
 2        0.06400000      4.01000000 # cp
 3        0.02000000      2.30000000 # h
 4        0.02000000      2.30000000 # hc
 5        0.01300000      1.09800000 # ho
 6        0.26700000      3.30000000 # o_1
 7        0.24000000      3.53500000 # oc
 8        0.24000000      3.53500000 # oh

Bond Coeffs  # class2

 1        1.48900000    339.35740000   -655.72360000    670.23620000                 # c_0       cp   
 2        1.21600000    823.79480000  -1878.79400000   2303.53110000                 # c_0      o_1   
 3        1.41700000    470.83610000   -627.61790000   1327.63450000                 # cp        cp   
 4        1.09820000    372.82510000   -803.45260000    894.31730000                 # cp        hc   
 5        1.37680000    428.87980000   -738.23510000   1114.96550000                 # cp        oc   
 6        1.37680000    428.87980000   -738.23510000   1114.96550000                 # cp        oh   
 7        0.74140000    414.00000000      0.00000000      0.00000000                 # h          h   
 8        0.96500000    532.50620000  -1282.90500000   2004.76580000                 # ho        oh   

Angle Coeffs  # class2

 1      108.40000000     43.95940000     -8.39240000     -9.33790000 # c_0      cp       cp   
 2      110.58840000     34.62140000     -7.09390000     -7.40320000 # cp      c_0       cp   
 3      119.30000000     65.10160000    -17.97660000      0.00000000 # cp      c_0      o_1   
 4      118.90000000     61.02260000    -34.99310000      0.00000000 # cp       cp       cp   
 5      117.94000000     35.15580000    -12.46820000      0.00000000 # cp       cp       hc   
 6      123.42000000     73.67810000    -21.67870000      0.00000000 # cp       cp       oc   
 7      123.42000000     73.67810000    -21.67870000      0.00000000 # cp       cp       oh   
 8      109.50000000     60.00000000      0.00000000      0.00000000 # cp       oc       cp   
 9      108.19000000     53.12500000     -8.50160000      0.00000000 # cp       oh       ho   

Dihedral Coeffs  # class2

 1        0.00000000      0.00000000      4.62820000      0.00000000      0.00000000      0.00000000 # c_0      cp      cp       cp   
 2        0.00000000      0.00000000      2.16700000      0.00000000      0.00000000      0.00000000 # c_0      cp      cp       hc   
 3        0.00000000      0.00000000      2.50000000      0.00000000      0.00000000      0.00000000 # cp      c_0      cp       cp   
 4        8.36670000      0.00000000      1.19320000      0.00000000      0.00000000      0.00000000 # cp       cp      cp       cp   
 5        0.00000000      0.00000000      3.96610000      0.00000000      0.00000000      0.00000000 # cp       cp      cp       hc   
 6        0.00000000      0.00000000      4.84980000      0.00000000      0.00000000      0.00000000 # cp       cp      cp       oc   
 7        0.00000000      0.00000000      4.84980000      0.00000000      0.00000000      0.00000000 # cp       cp      cp       oh   
 8        0.00000000      0.00000000      1.80000000      0.00000000      0.00000000      0.00000000 # cp       cp      oc       cp   
 9       -0.69000000      0.00000000      0.50970000      0.00000000      0.00950000      0.00000000 # cp       cp      oh       ho   
10        0.00000000      0.00000000      1.87690000      0.00000000      0.00000000      0.00000000 # hc       cp      cp       hc   
11        0.00000000      0.00000000      1.72340000      0.00000000      0.00000000      0.00000000 # hc       cp      cp       oc   
12        0.00000000      0.00000000      1.72340000      0.00000000      0.00000000      0.00000000 # hc       cp      cp       oh   
13        0.00000000      0.00000000      0.90630000      0.00000000      0.00000000      0.00000000 # o_1     c_0      cp       cp   

Improper Coeffs  # class2

 1       10.00000000      0.00000000 # c_0      cp      cp      cp    nb==3   
 2       38.79490000      0.00000000 # cp      c_0      cp     o_1    nb==3   
 3        4.89120000      0.00000000 # cp       cp      cp      hc    nb==3   
 4       13.04210000      0.00000000 # cp       cp      cp      oc    nb==3   
 5       13.04210000      0.00000000 # cp       cp      cp      oh    nb==3   

BondBond Coeffs  # class2

 1        0.00000000      1.48900000      1.41700000 # c_0      cp       cp   
 2        0.00000000      1.48900000      1.48900000 # cp      c_0       cp   
 3        0.00000000      1.48900000      1.21600000 # cp      c_0      o_1   
 4       68.28560000      1.41700000      1.41700000 # cp       cp       cp   
 5        1.07950000      1.41700000      1.09820000 # cp       cp       hc   
 6       48.47540000      1.41700000      1.37680000 # cp       cp       oc   
 7       48.47540000      1.41700000      1.37680000 # cp       cp       oh   
 8        0.00000000      1.37680000      1.37680000 # cp       oc       cp   
 9       20.65770000      1.37680000      0.96500000 # cp       oh       ho   

BondAngle Coeffs  # class2

 1        0.00000000      0.00000000      1.48900000      1.41700000 # c_0      cp       cp   
 2        0.00000000      0.00000000      1.48900000      1.48900000 # cp      c_0       cp   
 3        0.00000000      0.00000000      1.48900000      1.21600000 # cp      c_0      o_1   
 4       28.87080000     28.87080000      1.41700000      1.41700000 # cp       cp       cp   
 5       20.00330000     24.21830000      1.41700000      1.09820000 # cp       cp       hc   
 6       58.47900000    107.68060000      1.41700000      1.37680000 # cp       cp       oc   
 7       58.47900000    107.68060000      1.41700000      1.37680000 # cp       cp       oh   
 8        0.00000000      0.00000000      1.37680000      1.37680000 # cp       oc       cp   
 9       53.86140000     23.92240000      1.37680000      0.96500000 # cp       oh       ho   

AngleAngleTorsion Coeffs  # class2

 1        0.00000000    108.40000000    118.90000000 # c_0      cp      cp       cp   
 2        0.00000000    108.40000000    117.94000000 # c_0      cp      cp       hc   
 3        0.00000000    110.58840000    108.40000000 # cp      c_0      cp       cp   
 4        0.00000000    118.90000000    118.90000000 # cp       cp      cp       cp   
 5       -4.81410000    118.90000000    117.94000000 # cp       cp      cp       hc   
 6      -21.02470000    118.90000000    123.42000000 # cp       cp      cp       oc   
 7      -21.02470000    118.90000000    123.42000000 # cp       cp      cp       oh   
 8        0.00000000    123.42000000    109.50000000 # cp       cp      oc       cp   
 9       -4.60720000    123.42000000    108.19000000 # cp       cp      oh       ho   
10        0.35980000    117.94000000    117.94000000 # hc       cp      cp       hc   
11        4.22960000    117.94000000    123.42000000 # hc       cp      cp       oc   
12        4.22960000    117.94000000    123.42000000 # hc       cp      cp       oh   
13        0.00000000    119.30000000    108.40000000 # o_1     c_0      cp       cp   

EndBondTorsion Coeffs  # class2

 1        0.00000000      0.00000000      0.00000000      0.00000000      0.00000000      0.00000000      1.48900000      1.41700000 # c_0      cp      cp       cp   
 2        0.00000000      0.00000000      0.00000000      0.00000000      0.00000000      0.00000000      1.48900000      1.09820000 # c_0      cp      cp       hc   
 3        0.00000000      0.00000000      0.00000000      0.00000000      0.00000000      0.00000000      1.48900000      1.41700000 # cp      c_0      cp       cp   
 4       -0.11850000      6.32040000      0.00000000     -0.11850000      6.32040000      0.00000000      1.41700000      1.41700000 # cp       cp      cp       cp   
 5        0.00000000     -6.89580000      0.00000000      0.00000000     -0.46690000      0.00000000      1.41700000      1.09820000 # cp       cp      cp       hc   
 6        0.00000000      0.26550000      0.00000000      0.00000000      4.89050000      0.00000000      1.41700000      1.37680000 # cp       cp      cp       oc   
 7        0.00000000      0.26550000      0.00000000      0.00000000      4.89050000      0.00000000      1.41700000      1.37680000 # cp       cp      cp       oh   
 8        0.00000000      0.00000000      0.00000000      0.00000000      0.00000000      0.00000000      1.41700000      1.37680000 # cp       cp      oc       cp   
 9        0.90000000     -1.34560000      1.19000000      3.41320000      0.58730000     -0.13230000      1.41700000      0.96500000 # cp       cp      oh       ho   
10        0.00000000     -0.68900000      0.00000000      0.00000000     -0.68900000      0.00000000      1.09820000      1.09820000 # hc       cp      cp       hc   
11        0.00000000     -1.58670000      0.00000000      0.00000000      4.26410000      0.00000000      1.09820000      1.37680000 # hc       cp      cp       oc   
12        0.00000000     -1.58670000      0.00000000      0.00000000      4.26410000      0.00000000      1.09820000      1.37680000 # hc       cp      cp       oh   
13        0.00000000      0.00000000      0.00000000      0.00000000      0.00000000      0.00000000      1.21600000      1.41700000 # o_1     c_0      cp       cp   

MiddleBondTorsion Coeffs  # class2

 1        0.00000000      0.00000000      0.00000000      1.41700000 # c_0      cp      cp       cp   
 2        0.00000000      0.00000000      0.00000000      1.41700000 # c_0      cp      cp       hc   
 3        0.00000000      0.00000000      0.00000000      1.48900000 # cp      c_0      cp       cp   
 4       27.59890000     -2.31200000      0.00000000      1.41700000 # cp       cp      cp       cp   
 5        0.00000000     -1.15210000      0.00000000      1.41700000 # cp       cp      cp       hc   
 6        0.00000000      4.82550000      0.00000000      1.41700000 # cp       cp      cp       oc   
 7        0.00000000      4.82550000      0.00000000      1.41700000 # cp       cp      cp       oh   
 8        0.00000000      0.00000000      0.00000000      1.37680000 # cp       cp      oc       cp   
 9        1.15800000      3.26970000      3.51320000      1.37680000 # cp       cp      oh       ho   
10        0.00000000      4.82280000      0.00000000      1.41700000 # hc       cp      cp       hc   
11        0.00000000      5.54320000      0.00000000      1.41700000 # hc       cp      cp       oc   
12        0.00000000      5.54320000      0.00000000      1.41700000 # hc       cp      cp       oh   
13        0.00000000      0.00000000      0.00000000      1.48900000 # o_1     c_0      cp       cp   

BondBond13 Coeffs  # class2

 1        0.00000000      1.48900000      1.41700000 # c_0      cp      cp       cp   
 2        0.00000000      1.48900000      1.09820000 # c_0      cp      cp       hc   
 3        0.00000000      1.48900000      1.41700000 # cp      c_0      cp       cp   
 4       53.00000000      1.41700000      1.41700000 # cp       cp      cp       cp   
 5       -6.27410000      1.41700000      1.09820000 # cp       cp      cp       hc   
 6       -2.24360000      1.41700000      1.37680000 # cp       cp      cp       oc   
 7       -2.24360000      1.41700000      1.37680000 # cp       cp      cp       oh   
 8        0.00000000      1.41700000      1.37680000 # cp       cp      oc       cp   
 9        1.15900000      1.41700000      0.96500000 # cp       cp      oh       ho   
10       -1.70770000      1.09820000      1.09820000 # hc       cp      cp       hc   
11        2.05170000      1.09820000      1.37680000 # hc       cp      cp       oc   
12        2.05170000      1.09820000      1.37680000 # hc       cp      cp       oh   
13        0.00000000      1.21600000      1.41700000 # o_1     c_0      cp       cp   

AngleTorsion Coeffs  # class2

 1        0.00000000      0.00000000      0.00000000      0.00000000      0.00000000      0.00000000    108.40000000    118.90000000 # c_0      cp      cp       cp   
 2        0.00000000      0.00000000      0.00000000      0.00000000      0.00000000      0.00000000    108.40000000    117.94000000 # c_0      cp      cp       hc   
 3        0.00000000      0.00000000      0.00000000      0.00000000      0.00000000      0.00000000    110.58840000    108.40000000 # cp      c_0      cp       cp   
 4        1.97670000      1.02390000      0.00000000      1.97670000      1.02390000      0.00000000    118.90000000    118.90000000 # cp       cp      cp       cp   
 5        0.00000000      2.50140000      0.00000000      0.00000000      2.71470000      0.00000000    118.90000000    117.94000000 # cp       cp      cp       hc   
 6        0.00000000     10.01550000      0.00000000      0.00000000      1.74040000      0.00000000    118.90000000    123.42000000 # cp       cp      cp       oc   
 7        0.00000000     10.01550000      0.00000000      0.00000000      1.74040000      0.00000000    118.90000000    123.42000000 # cp       cp      cp       oh   
 8        0.00000000      0.00000000      0.00000000      0.00000000      0.00000000      0.00000000    123.42000000    109.50000000 # cp       cp      oc       cp   
 9       -5.13600000     -1.01220000      0.00000000      4.68520000      0.02300000     -0.59800000    123.42000000    108.19000000 # cp       cp      oh       ho   
10        0.00000000      2.45010000      0.00000000      0.00000000      2.45010000      0.00000000    117.94000000    117.94000000 # hc       cp      cp       hc   
11        0.00000000      1.87290000      0.00000000      0.00000000      2.57060000      0.00000000    117.94000000    123.42000000 # hc       cp      cp       oc   
12        0.00000000      1.87290000      0.00000000      0.00000000      2.57060000      0.00000000    117.94000000    123.42000000 # hc       cp      cp       oh   
13        0.00000000      0.00000000      0.00000000      0.00000000      0.00000000      0.00000000    119.30000000    108.40000000 # o_1     c_0      cp       cp   

AngleAngle Coeffs  # class2

 1        0.00000000      0.00000000      0.00000000    108.40000000    118.90000000    108.40000000 # c_0      cp      cp      cp    nb==3   
 2        0.00000000      0.00000000      0.00000000    110.58840000    119.30000000    119.30000000 # cp      c_0      cp     o_1    nb==3   
 3        0.00000000      0.00000000      0.00000000    118.90000000    117.94000000    117.94000000 # cp       cp      cp      hc    nb==3   
 4        0.00000000      0.00000000      0.00000000    118.90000000    123.42000000    123.42000000 # cp       cp      cp      oc    nb==3   
 5        0.00000000      0.00000000      0.00000000    118.90000000    123.42000000    123.42000000 # cp       cp      cp      oh    nb==3   

Atoms # full

  1     1   2   0.000000   -6.291597222     0.193100000     0.720502778   0  0  0  # cp/C
  2     1   2  -0.126800   -5.071397222     1.490700000    -1.606197222   0  0  0  # cp/C
  3     1   2  -0.126800   -4.292097222     1.625900000    -2.755097222   0  0  0  # cp/C
  4     1   2  -0.126800   -2.913197222     1.425900000    -2.689797222   0  0  0  # cp/C
  5     1   2  -0.126800   -2.313697222     1.090900000    -1.475797222   0  0  0  # cp/C
  6     1   2  -0.126800   -3.092997222     0.955800000    -0.326997222   0  0  0  # cp/C
  7     1   1   0.396400   -5.226897222     1.024700000     0.720502778   0  0  0  # c_0/C
  8     1   2   0.000000   -4.471997222     1.155700000    -0.392197222   0  0  0  # cp/C
  9     1   6  -0.396400   -4.949897222     1.651300000     1.715502778   0  0  0  # o_1/O
  10    1   4   0.126800   -6.158897222     1.648300000    -1.657597222   0  0  0  # hc/H
  11    1   4   0.126800   -4.764897222     1.890200000    -3.712497222   0  0  0  # hc/H
  12    1   4   0.126800   -2.298497222     1.532400000    -3.595797222   0  0  0  # hc/H
  13    1   4   0.126800   -1.226297222     0.933200000    -1.424397222   0  0  0  # hc/H
  14    1   4   0.126800   -2.620197222     0.691600000     0.630502778   0  0  0  # hc/H
  15    2   2   0.026500    2.447202778    -0.286200000     0.720402778   0  0  0  # cp/C
  16    2   2  -0.126800    2.447102778    -1.681000000     0.720302778   0  0  0  # cp/C
  17    2   2  -0.126800    3.655102778    -2.378400000     0.720402778   0  0  0  # cp/C
  18    2   2  -0.126800    4.863102778    -0.286200000     0.720402778   0  0  0  # cp/C
  19    2   2  -0.126800    3.655102778     0.411300000     0.720402778   0  0  0  # cp/C
  20    2   7  -0.053000    6.036502778    -2.358500000     0.720502778   0  0  0  # oc/O
  21    2   2   0.026500    4.863102778    -1.681000000     0.720402778   0  0  0  # cp/C
  22    2   8  -0.450600    1.273702778     0.391400000     0.720402778   0  0  0  # oh/O
  23    2   4   0.126800    1.494502778    -2.231000000     0.720202778   0  0  0  # hc/H
  24    2   4   0.126800    3.655102778    -3.478400000     0.720502778   0  0  0  # hc/H
  25    2   4   0.126800    5.815802778     0.263800000     0.720302778   0  0  0  # hc/H
  26    2   4   0.126800    3.655102778     1.511300000     0.720402778   0  0  0  # hc/H
  27    2   5   0.424100    1.475802778     1.342100000     0.720402778   0  0  0  # ho/H

Bonds

1  1  7  1 
2  3  2  3 
3  3  2  8 
4  4  2  10
5  3  3  4 
6  4  3  11
7  3  4  5 
8  4  4  12
9  3  5  6 
10 4  5  13
11 3  6  8 
12 4  6  14
13 1  7  8 
14 2  7  9 
15 3  15 16
16 3  15 19
17 6  15 22
18 3  16 17
19 4  16 23
20 3  17 21
21 4  17 24
22 3  18 19
23 3  18 21
24 4  18 25
25 4  19 26
26 5  21 20
27 8  27 22

Angles

1  4  3  2  8 
2  5  3  2  10
3  5  8  2  10
4  4  2  3  4 
5  5  2  3  11
6  5  4  3  11
7  5  5  4  12
8  4  3  4  5 
9  5  3  4  12
10 5  4  5  13
11 5  6  5  13
12 4  4  5  6 
13 5  5  6  14
14 5  8  6  14
15 4  5  6  8 
16 3  1  7  9 
17 3  8  7  9 
18 2  1  7  8 
19 1  7  8  2 
20 4  2  8  6 
21 1  7  8  6 
22 4  16 15 19
23 7  16 15 22
24 7  19 15 22
25 5  17 16 23
26 4  15 16 17
27 5  15 16 23
28 5  21 17 24
29 4  16 17 21
30 5  16 17 24
31 5  21 18 25
32 5  19 18 25
33 4  19 18 21
34 5  18 19 26
35 4  15 19 18
36 5  15 19 26
37 4  17 21 18
38 6  18 21 20
39 6  17 21 20
40 9  15 22 27

Dihedrals

1  10 10 2  3  11
2  1  7  8  2  3 
3  4  3  2  8  6 
4  5  8  2  3  11
5  4  4  3  2  8 
6  4  2  3  4  5 
7  10 11 3  4  12
8  5  2  3  4  12
9  5  4  3  2  10
10 5  5  4  3  11
11 4  3  4  5  6 
12 5  3  4  5  13
13 10 12 4  5  13
14 5  4  5  6  14
15 10 13 5  6  14
16 5  6  5  4  12
17 4  4  5  6  8 
18 5  8  6  5  13
19 1  7  8  6  5 
20 3  1  7  8  6 
21 3  1  7  8  2 
22 2  7  8  2  10
23 5  6  8  2  10
24 13 9  7  8  2 
25 13 9  7  8  6 
26 4  2  8  6  5 
27 5  2  8  6  14
28 2  7  8  6  14
29 9  19 15 22 27
30 4  16 15 19 18
31 5  16 15 19 26
32 12 23 16 15 22
33 5  19 15 16 23
34 12 26 19 15 22
35 9  16 15 22 27
36 7  17 16 15 22
37 4  17 16 15 19
38 10 23 16 17 24
39 4  15 16 17 21
40 5  15 16 17 24
41 5  21 17 16 23
42 4  16 17 21 18
43 6  16 17 21 20
44 6  19 18 21 20
45 5  21 18 19 26
46 10 25 18 19 26
47 5  15 19 18 25
48 7  18 19 15 22
49 4  15 19 18 21
50 4  17 21 18 19
51 5  18 21 17 24
52 11 24 17 21 20
53 5  17 21 18 25
54 11 25 18 21 20

Impropers

1  3  3  2  8  10
2  3  2  3  4  11
3  3  3  4  5  12
4  3  4  5  6  13
5  3  5  6  8  14
6  2  1  7  8  9 
7  1  7  8  2  6 
8  5  16 15 19 22
9  3  15 16 17 23
10 3  16 17 21 24
11 3  19 18 21 25
12 3  15 19 18 26
13 4  17 21 18 20
