HEADER,  detda.mol  read w/ mol2lmp > all2lmp: v1.9 / 31 July 2023  Class: 0

31 atoms
31 bonds
54 angles
68 dihedrals
8 impropers

8 atom types
9 bond types
14 angle types
14 dihedral types
5 improper types

-4.210490323 3.840909677 xlo xhi
-4.977545161 3.953254839 ylo yhi
-1.415503226 1.415896774 zlo zhi

Masses

1   12.01100000  #  CA_90
2   12.01100000  #  CT_80
3   12.01100000  #  CT_81
4    1.00800000  #  HA_91
5    1.00800000  #  HC_85
6    1.00800000  #  HC_98
7    1.00800000  #  H_739
8   14.00700000  #  NT_730

Pair Coeffs  # lj/cut/coul/long

1         0.07000000      3.16269045 #  CA_90
2         0.06600000      3.11814551 #  CT_80
3         0.06600000      3.11814551 #  CT_81
4         0.03000000      2.15597490 #  HA_91
5         0.03000000      2.22724678 #  HC_85
6         0.03000000      2.22724678 #  HC_98
7         0.00000000      0.00000000 #  H_739
8         0.17000000      2.93996577 #  NT_730

Bond Coeffs  # harmonic

1       469.00000000      1.40000000 #  CA_90    CA_90   
2       317.00000000      1.51000000 #  CT_80    CA_90   
3       317.00000000      1.51000000 #  CT_81    CA_90   
4       367.00000000      1.08000000 #  CA_90    HA_91   
5       481.00000000      1.34000000 #  NT_730   CA_90   
6       268.00000000      1.52900000 #  CT_80    CT_81   
7       340.00000000      1.09000000 #  CT_80    HC_98   
8       340.00000000      1.09000000 #  CT_81    HC_85   
9       434.00000000      1.01000000 #  NT_730   H_739   

Angle Coeffs  # harmonic

1        63.00000000    120.00000000 #  CA_90    CA_90     CA_90   
2        70.00000000    120.00000000 #  CT_80    CA_90     CA_90   
3        70.00000000    120.00000000 #  CT_81    CA_90     CA_90   
4        35.00000000    120.00000000 #  CA_90    CA_90     HA_91   
5        70.00000000    120.00000000 #  NT_730   CA_90     CA_90   
6        35.00000000    109.50000000 #  HC_98    CT_80     CA_90   
7        63.00000000    114.00000000 #  CT_80    CT_81     CA_90   
8        35.00000000    109.50000000 #  HC_85    CT_81     CA_90   
9        35.00000000    116.00000000 #  H_739    NT_730    CA_90   
10       37.50000000    110.70000000 #  CT_80    CT_81     HC_85   
11       37.50000000    110.70000000 #  CT_81    CT_80     HC_98   
12       33.00000000    107.80000000 #  HC_85    CT_81     HC_85   
13       33.00000000    107.80000000 #  HC_98    CT_80     HC_98   
14       43.60000000    106.40000000 #  H_739    NT_730    H_739   

Dihedral Coeffs  # opls

1         0.00000000      7.25000000      0.00000000      0.00000000 #  CA_90    CA_90     CA_90     CA_90   
2         0.00000000      7.25000000      0.00000000      0.00000000 #  CT_80    CA_90     CA_90     CA_90   
3         0.00000000      7.25000000      0.00000000      0.00000000 #  CT_81    CA_90     CA_90     CA_90   
4         0.00000000      7.25000000      0.00000000      0.00000000 #  CA_90    CA_90     CA_90     HA_91   
5         0.00000000      7.25000000      0.00000000      0.00000000 #  CT_81    CA_90     CA_90     HA_91   
6         0.00000000      7.25000000      0.00000000      0.00000000 #  NT_730   CA_90     CA_90     CT_80   
7         0.00000000      7.25000000      0.00000000      0.00000000 #  NT_730   CA_90     CA_90     CT_81   
8         0.00000000      7.25000000      0.00000000      0.00000000 #  NT_730   CA_90     CA_90     CA_90   
9         0.00000000      0.00000000      0.00000000      0.00000000 #  HC_98    CT_80     CA_90     CA_90   
10        0.00000000      0.00000000      0.00000000      0.00000000 #  CT_80    CT_81     CA_90     CA_90   
11        0.00000000      0.00000000      0.00000000      0.00000000 #  HC_85    CT_81     CA_90     CA_90   
12        0.00000000      2.03000000      0.00000000      0.00000000 #  H_739    NT_730    CA_90     CA_90   
13        0.00000000      0.00000000      0.30000000      0.00000000 #  HC_85    CT_81     CT_80     HC_98   
14        0.00000000      0.00000000      0.46200000      0.00000000 #  HC_98    CT_80     CT_81     CA_90   

Improper Coeffs  # cvff

1         5.00000000    -1     2 #  CA_90    CA_90     CA_90     CT_80     nb==3   
2         5.00000000    -1     2 #  CA_90    CA_90     CA_90     CT_81     nb==3   
3         5.00000000    -1     2 #  CA_90    CA_90     CA_90     HA_91     nb==3   
4         5.00000000    -1     2 #  CA_90    CA_90     CA_90     NT_730    nb==3   
5         0.00000000     0     0 #  CA_90    NT_730    H_739     H_739     nb==3   

Atoms # full

 1  1  1    0.025871   -1.596190323     0.232054839    -0.000003226      0    0    0 #  CA_90/C
 2  1  1    0.025871   -0.977190323    -0.971745161    -0.000003226      0    0    0 #  CA_90/C
 3  1  1    0.025871    0.371109677    -1.056245161    -0.000003226      0    0    0 #  CA_90/C
 4  1  1    0.025871    1.062509677     0.099854839    -0.000103226      0    0    0 #  CA_90/C
 5  1  1    0.025871    0.494309677     1.315354839    -0.000103226      0    0    0 #  CA_90/C
 6  1  1    0.025871   -0.851090323     1.358054839    -0.000003226      0    0    0 #  CA_90/C
 7  1  3   -0.222129    1.326109677     2.590054839    -0.000103226      0    0    0 #  CT_81/C
 8  1  2   -0.222129    2.855209677     2.449754839    -0.000003226      0    0    0 #  CT_80/C
 9  1  3   -0.222129    1.247009677    -2.308945161    -0.000003226      0    0    0 #  CT_81/C
10  1  2   -0.222129    0.690509677    -3.736545161     0.000196774      0    0    0 #  CT_80/C
11  1  2   -0.222129   -3.111990323     0.385054839    -0.000003226      0    0    0 #  CT_80/C
12  1  8    0.277871   -1.420690323     2.493454839    -0.000103226      0    0    0 #  NT_730/N
13  1  8    0.277871   -1.693590323    -2.018245161     0.000096774      0    0    0 #  NT_730/N
14  1  4   -0.284129    2.160909677     0.031154839    -0.000103226      0    0    0 #  HA_91/H
15  1  5    0.197871    1.047309677     3.184754839    -0.904103226      0    0    0 #  HC_85/H
16  1  5    0.197871    1.047209677     3.184954839     0.903696774      0    0    0 #  HC_85/H
17  1  6    0.197871    3.340909677     3.453254839    -0.000003226      0    0    0 #  HC_98/H
18  1  6    0.197871    3.221009677     1.916954839     0.907496774      0    0    0 #  HC_98/H
19  1  6    0.197871    3.221109677     1.916854839    -0.907403226      0    0    0 #  HC_98/H
20  1  5    0.197871    1.910909677    -2.234745161    -0.897603226      0    0    0 #  HC_85/H
21  1  5    0.197871    1.911009677    -2.234645161     0.897496774      0    0    0 #  HC_85/H
22  1  6    0.197871    1.523909677    -4.477545161     0.000196774      0    0    0 #  HC_98/H
23  1  6    0.197871    0.093509677    -3.950845161     0.915896774      0    0    0 #  HC_98/H
24  1  6    0.197871    0.093509677    -3.951045161    -0.915503226      0    0    0 #  HC_98/H
25  1  6    0.197871   -3.710490323    -0.546245161    -0.000203226      0    0    0 #  HC_98/H
26  1  6    0.197871   -3.442090323     0.941854839     0.906896774      0    0    0 #  HC_98/H
27  1  6    0.197871   -3.442090323     0.942154839    -0.906703226      0    0    0 #  HC_98/H
28  1  7   -0.472129   -2.463690323     2.591454839    -0.000003226      0    0    0 #  H_739/H
29  1  7   -0.472129   -0.868790323     3.384154839    -0.000103226      0    0    0 #  H_739/H
30  1  7   -0.472129   -1.302090323    -2.982245161     0.000096774      0    0    0 #  H_739/H
31  1  7   -0.472129   -2.738090323    -2.002145161     0.000096774      0    0    0 #  H_739/H

Bonds

  1   1     1     2  
  2   1     1     6  
  3   2    11     1  
  4   1     2     3  
  5   5    13     2  
  6   1     3     4  
  7   3     9     3  
  8   1     4     5  
  9   4     4    14  
 10   1     5     6  
 11   3     7     5  
 12   5    12     6  
 13   6     8     7  
 14   8     7    15  
 15   8     7    16  
 16   7     8    17  
 17   7     8    18  
 18   7     8    19  
 19   6    10     9  
 20   8     9    20  
 21   8     9    21  
 22   7    10    22  
 23   7    10    23  
 24   7    10    24  
 25   7    11    25  
 26   7    11    26  
 27   7    11    27  
 28   9    12    28  
 29   9    12    29  
 30   9    13    30  
 31   9    13    31  

Angles

  1   1     2     1     6  
  2   2    11     1     6  
  3   2    11     1     2  
  4   5    13     2     3  
  5   5    13     2     1  
  6   1     1     2     3  
  7   3     9     3     2  
  8   1     2     3     4  
  9   3     9     3     4  
 10   4     5     4    14  
 11   1     3     4     5  
 12   4     3     4    14  
 13   1     4     5     6  
 14   3     7     5     6  
 15   3     7     5     4  
 16   5    12     6     1  
 17   1     1     6     5  
 18   5    12     6     5  
 19   8    15     7     5  
 20   10    8     7    16  
 21   7     8     7     5  
 22   10    8     7    15  
 23   12   15     7    16  
 24   8    16     7     5  
 25   13   17     8    19  
 26   11    7     8    19  
 27   13   17     8    18  
 28   11    7     8    18  
 29   13   18     8    19  
 30   11    7     8    17  
 31   7    10     9     3  
 32   10   10     9    20  
 33   8    21     9     3  
 34   8    20     9     3  
 35   12   20     9    21  
 36   10   10     9    21  
 37   11    9    10    22  
 38   11    9    10    24  
 39   13   22    10    24  
 40   13   23    10    24  
 41   11    9    10    23  
 42   13   22    10    23  
 43   13   25    11    26  
 44   6    26    11     1  
 45   13   26    11    27  
 46   6    25    11     1  
 47   6    27    11     1  
 48   13   25    11    27  
 49   9    29    12     6  
 50   9    28    12     6  
 51   14   28    12    29  
 52   14   30    13    31  
 53   9    31    13     2  
 54   9    30    13     2  

Dihedrals

  1   6    12     6     1    11  
  2   9    26    11     1     6  
  3   9    27    11     1     2  
  4   8    12     6     1     2  
  5   8    13     2     1     6  
  6   9    25    11     1     6  
  7   9    26    11     1     2  
  8   6    13     2     1    11  
  9   1     2     1     6     5  
 10   9    27    11     1     6  
 11   9    25    11     1     2  
 12   1     3     2     1     6  
 13   12   30    13     2     1  
 14   1     1     2     3     4  
 15   12   31    13     2     3  
 16   2    11     1     2     3  
 17   3     9     3     2     1  
 18   12   30    13     2     3  
 19   12   31    13     2     1  
 20   10   10     9     3     4  
 21   8    13     2     3     4  
 22   11   20     9     3     2  
 23   5     9     3     4    14  
 24   1     2     3     4     5  
 25   11   21     9     3     4  
 26   4     2     3     4    14  
 27   10   10     9     3     2  
 28   7    13     2     3     9  
 29   11   20     9     3     4  
 30   11   21     9     3     2  
 31   1     3     4     5     6  
 32   3     9     3     4     5  
 33   3     7     5     4     3  
 34   11   15     7     5     4  
 35   11   15     7     5     6  
 36   7    12     6     5     7  
 37   10    8     7     5     4  
 38   8    12     6     5     4  
 39   10    8     7     5     6  
 40   5     7     5     4    14  
 41   11   16     7     5     4  
 42   4     6     5     4    14  
 43   11   16     7     5     6  
 44   12   28    12     6     1  
 45   1     1     6     5     4  
 46   3     7     5     6     1  
 47   12   28    12     6     5  
 48   12   29    12     6     1  
 49   2    11     1     6     5  
 50   12   29    12     6     5  
 51   13   16     7     8    18  
 52   13   15     7     8    19  
 53   14   17     8     7     5  
 54   13   16     7     8    17  
 55   13   15     7     8    18  
 56   14   19     8     7     5  
 57   13   16     7     8    19  
 58   13   15     7     8    17  
 59   14   18     8     7     5  
 60   13   21     9    10    23  
 61   14   22    10     9     3  
 62   13   20     9    10    22  
 63   13   21     9    10    22  
 64   14   24    10     9     3  
 65   13   20     9    10    24  
 66   13   21     9    10    24  
 67   14   23    10     9     3  
 68   13   20     9    10    23  

Impropers

  1   1     2     1     6    11  
  2   4     1     2     3    13  
  3   2     2     3     4     9  
  4   3     3     4     5    14  
  5   2     4     5     6     7  
  6   4     1     6     5    12  
  7   5     6    12    28    29  
  8   5     2    13    30    31  
