LAMMPS data file Created by LigParGen - (Written by Leela S. Dodda)

      43 atoms
      46 bonds
      82 angles
     111 dihedrals
      21 impropers
 
      43 atom types
      46 bond types
      82 angle types
     111 dihedral types
      21 improper types
 
   -6.217810    43.782190 xlo xhi
    0.060600    50.060600 ylo yhi
   -7.439410    42.560590 zlo zhi

Masses

       1     15.999  # O
       2     12.011  # C
       3     12.011  # C
       4     12.011  # C
       5     15.999  # O
       6     12.011  # C
       7     12.011  # C
       8     12.011  # C
       9     12.011  # C
      10     12.011  # C
      11     12.011  # C
      12     12.011  # C
      13     12.011  # C
      14     12.011  # C
      15     12.011  # C
      16     12.011  # C
      17     12.011  # C
      18     12.011  # C
      19     15.999  # O
      20     12.011  # C
      21     12.011  # C
      22     12.011  # C
      23     15.999  # O
      24      1.008  # H
      25      1.008  # H
      26      1.008  # H
      27      1.008  # H
      28      1.008  # H
      29      1.008  # H
      30      1.008  # H
      31      1.008  # H
      32      1.008  # H
      33      1.008  # H
      34      1.008  # H
      35      1.008  # H
      36      1.008  # H
      37      1.008  # H
      38      1.008  # H
      39      1.008  # H
      40      1.008  # H
      41      1.008  # H
      42      1.008  # H
      43      1.008  # H

Pair Coeffs 

       1      0.140  2.9000000 
       2      0.083  3.4500000 
       3      0.083  3.4500000 
       4      0.066  3.5000000 
       5      0.140  2.9000000 
       6      0.070  3.5500000 
       7      0.070  3.5500000 
       8      0.070  3.5500000 
       9      0.070  3.5500000 
      10      0.070  3.5500000 
      11      0.070  3.5500000 
      12      0.066  3.5000000 
      13      0.070  3.5500000 
      14      0.070  3.5500000 
      15      0.070  3.5500000 
      16      0.070  3.5500000 
      17      0.070  3.5500000 
      18      0.070  3.5500000 
      19      0.140  2.9000000 
      20      0.066  3.5000000 
      21      0.083  3.4500000 
      22      0.083  3.4500000 
      23      0.140  2.9000000 
      24      0.030  2.5000000 
      25      0.030  2.5000000 
      26      0.030  2.5000000 
      27      0.030  2.5000000 
      28      0.030  2.5000000 
      29      0.030  2.4200000 
      30      0.030  2.4200000 
      31      0.030  2.4200000 
      32      0.030  2.4200000 
      33      0.030  2.5000000 
      34      0.030  2.5000000 
      35      0.030  2.4200000 
      36      0.030  2.4200000 
      37      0.030  2.4200000 
      38      0.030  2.4200000 
      39      0.030  2.5000000 
      40      0.030  2.5000000 
      41      0.030  2.5000000 
      42      0.030  2.5000000 
      43      0.030  2.5000000 

Bond Coeffs 

       1   320.0000     1.4100 
       2   320.0000     1.4100 
       3   280.0000     1.5100 
       4   320.0000     1.4100 
       5   450.0000     1.3640 
       6   469.0000     1.4000 
       7   469.0000     1.4000 
       8   469.0000     1.4000 
       9   469.0000     1.4000 
      10   469.0000     1.4000 
      11   317.0000     1.5100 
      12   317.0000     1.5100 
      13   469.0000     1.4000 
      14   469.0000     1.4000 
      15   469.0000     1.4000 
      16   469.0000     1.4000 
      17   469.0000     1.4000 
      18   450.0000     1.3640 
      19   320.0000     1.4100 
      20   280.0000     1.5100 
      21   260.0000     1.5200 
      22   320.0000     1.4100 
      23   340.0000     1.0880 
      24   340.0000     1.0880 
      25   340.0000     1.0880 
      26   340.0000     1.0900 
      27   340.0000     1.0900 
      28   367.0000     1.0800 
      29   367.0000     1.0800 
      30   367.0000     1.0800 
      31   367.0000     1.0800 
      32   340.0000     1.0900 
      33   340.0000     1.0900 
      34   367.0000     1.0800 
      35   367.0000     1.0800 
      36   367.0000     1.0800 
      37   367.0000     1.0800 
      38   340.0000     1.0900 
      39   340.0000     1.0900 
      40   340.0000     1.0880 
      41   340.0000     1.0880 
      42   340.0000     1.0880 
      43   260.0000     1.5200 
      44   469.0000     1.4000 
      45   469.0000     1.4000 
      46   320.0000     1.4100 

Angle Coeffs 

       1     60.000     90.000
       2     37.500    117.200
       3     50.000    109.500
       4     75.000    111.000
       5     70.000    120.000
       6     63.000    120.000
       7     63.000    120.000
       8     63.000    120.000
       9     70.000    120.000
      10     70.000    120.000
      11     40.000    109.500
      12     70.000    120.000
      13     63.000    120.000
      14     63.000    120.000
      15     63.000    120.000
      16     70.000    120.000
      17     70.000    120.000
      18     75.000    111.000
      19     50.000    109.500
      20     37.500    117.200
      21     37.500    117.200
      22     37.500    117.200
      23     37.500    117.200
      24     37.500    117.200
      25     37.500    110.700
      26     37.500    110.700
      27     35.000    120.000
      28     35.000    120.000
      29     35.000    120.000
      30     35.000    120.000
      31     35.000    109.500
      32     35.000    109.500
      33     35.000    120.000
      34     35.000    120.000
      35     35.000    120.000
      36     35.000    120.000
      37     35.000    109.500
      38     35.000    109.500
      39     35.000    114.300
      40     37.500    117.200
      41     37.500    117.200
      42     50.000     90.000
      43     37.500    117.200
      44     35.000    120.000
      45     35.000    120.000
      46     37.500    117.200
      47     50.000     90.000
      48     37.500    117.200
      49     35.000    109.500
      50     33.000    107.800
      51     63.000    120.000
      52     70.000    120.000
      53     37.500    110.700
      54     63.000    120.000
      55     33.000    107.800
      56     37.500    117.200
      57     60.000     90.000
      58     63.000    120.000
      59     35.000    120.000
      60     35.000    120.000
      61     35.000    120.000
      62     37.500    117.200
      63     35.000    114.300
      64     33.000    107.800
      65     35.000    120.000
      66     37.500    110.700
      67     35.000    120.000
      68     50.000     90.000
      69     37.500    117.200
      70     63.000    120.000
      71     37.500    117.200
      72     35.000    109.500
      73     35.000    114.300
      74     37.500    117.200
      75     70.000    120.000
      76     35.000    109.500
      77     35.000    109.500
      78     50.000     90.000
      79     35.000    120.000
      80     35.000    114.300
      81     63.000    120.000
      82     63.000    120.000

Dihedral Coeffs  

       1      0.000      0.000      0.000      0.000 
       2     -0.550      0.000      0.000      0.000 
       3      0.650     -0.250      0.670      0.000 
       4      0.000      3.000      0.000      0.000 
       5      0.000      7.250      0.000      0.000 
       6      0.000      7.250      0.000      0.000 
       7      0.000      7.250      0.000      0.000 
       8      0.000      0.000      0.000      0.000 
       9      0.000      0.000      0.000      0.000 
      10      0.000      7.250      0.000      0.000 
      11      0.000      7.250      0.000      0.000 
      12      0.000      7.250      0.000      0.000 
      13      0.000      3.000      0.000      0.000 
      14      0.650     -0.250      0.670      0.000 
      15      0.000      0.000      0.000      0.000 
      16      0.000      0.000      0.000      0.000 
      17      0.000      0.000      0.000      0.000 
      18      0.000      0.000      0.000      0.000 
      19      0.000      0.000      0.000      0.000 
      20      0.000      0.000      0.000      0.000 
      21      0.000      0.000      0.000      0.000 
      22      0.000      7.250      0.000      0.000 
      23      0.000      0.000      0.300      0.000 
      24      0.000      7.250      0.000      0.000 
      25      0.000      7.250      0.000      0.000 
      26      0.000      7.250      0.000      0.000 
      27      0.000      0.000      0.300      0.000 
      28      0.000      7.250      0.000      0.000 
      29      0.000      0.000      0.000      0.000 
      30      0.000      7.250      0.000      0.000 
      31      0.000      0.000      0.000      0.000 
      32      0.000      0.000      0.000      0.000 
      33      0.000      0.000      0.000      0.000 
      34      0.000      7.250      0.000      0.000 
      35      0.000      7.250      0.000      0.000 
      36      0.000      0.000      0.000      0.000 
      37      0.000      7.250      0.000      0.000 
      38      0.000      7.250      0.000      0.000 
      39      0.000      0.000      0.000      0.000 
      40      0.000      7.250      0.000      0.000 
      41      0.000      0.000      0.300      0.000 
      42      0.000      0.000      0.000      0.000 
      43      0.000      7.250      0.000      0.000 
      44      0.000      0.000      0.000      0.000 
      45      0.000      0.000      0.468      0.000 
      46      0.000      0.000      0.000      0.000 
      47      0.000      7.250      0.000      0.000 
      48      0.000      7.250      0.000      0.000 
      49      0.000      0.000      0.000      0.000 
      50      0.000      0.000      0.760      0.000 
      51      0.000      7.250      0.000      0.000 
      52     -0.550      0.000      0.000      0.000 
      53      0.000      7.250      0.000      0.000 
      54      0.000      7.250      0.000      0.000 
      55      0.000      7.250      0.000      0.000 
      56      0.000      7.250      0.000      0.000 
      57      0.000      7.250      0.000      0.000 
      58      0.000      7.250      0.000      0.000 
      59      0.000      0.000      0.000      0.000 
      60      0.000      7.250      0.000      0.000 
      61      0.000      7.250      0.000      0.000 
      62      0.000      0.000      0.000      0.000 
      63      0.000      0.000      0.300      0.000 
      64      0.000      7.250      0.000      0.000 
      65      0.000      0.000      0.000      0.000 
      66      0.000      7.250      0.000      0.000 
      67      0.000      3.000      0.000      0.000 
      68      0.000      7.250      0.000      0.000 
      69      0.000      0.000      0.468      0.000 
      70      0.000      7.250      0.000      0.000 
      71      0.000      7.250      0.000      0.000 
      72      0.000      0.000      0.000      0.000 
      73      0.000      0.000      0.000      0.000 
      74      0.000      7.250      0.000      0.000 
      75      0.000      0.000      0.300      0.000 
      76      0.000      0.000      0.760      0.000 
      77      0.000      0.000      0.000      0.000 
      78      0.000      0.000      0.000      0.000 
      79      0.000      0.000      0.000      0.000 
      80      0.000      0.000      0.300      0.000 
      81      0.000      0.000      0.300      0.000 
      82      0.000      0.000      0.468      0.000 
      83      0.000      0.000      0.000      0.000 
      84      0.000      0.000      0.000      0.000 
      85      0.000      7.250      0.000      0.000 
      86      0.000      7.250      0.000      0.000 
      87      0.000      0.000      0.000      0.000 
      88      0.000      0.000      0.000      0.000 
      89      0.000      0.000      0.000      0.000 
      90      0.000      7.250      0.000      0.000 
      91      0.000      0.000      0.468      0.000 
      92      0.000      0.000      0.300      0.000 
      93      0.000      0.000      0.760      0.000 
      94      0.000      7.250      0.000      0.000 
      95      0.000      0.000      0.000      0.000 
      96      0.000      7.250      0.000      0.000 
      97      0.000      7.250      0.000      0.000 
      98      0.000      0.000      0.468      0.000 
      99      0.000      0.000      0.000      0.000 
     100      0.000      7.250      0.000      0.000 
     101      0.000      7.250      0.000      0.000 
     102      0.000      0.000      0.760      0.000 
     103      0.000      0.000      0.000      0.000 
     104      0.000      0.000      0.000      0.000 
     105      0.000      0.000      0.468      0.000 
     106      0.000      7.250      0.000      0.000 
     107      0.000      3.000      0.000      0.000 
     108      0.000      7.250      0.000      0.000 
     109      0.000      7.250      0.000      0.000 
     110      0.000      7.250      0.000      0.000 
     111      0.000      7.250      0.000      0.000 

Improper Coeffs 

       1      2.500      -1       2 
       2      2.500      -1       2 
       3      2.500      -1       2 
       4      2.500      -1       2 
       5      0.000      -1       2 
       6      0.000      -1       2 
       7      2.500      -1       2 
       8      2.500      -1       2 
       9      2.500      -1       2 
      10      2.500      -1       2 
      11      0.000      -1       2 
      12      0.000      -1       2 
      13      2.500      -1       2 
      14      2.500      -1       2 
      15      2.500      -1       2 
      16      2.500      -1       2 
      17      0.000      -1       2 
      18      0.000      -1       2 
      19      0.000      -1       2 
      20      0.000      -1       2 
      21      0.000      -1       2 

Atoms # full

     1      1      1 -0.43230000    1.000  1.00000  0.00000
     2      1      2 -0.05090000   -0.540  1.00000  0.00000
     3      1      3 0.00780000    0.094  1.00000 -1.24502
     4      1      4 0.02150000    0.281  2.31740 -1.99031
     5      1      5 -0.32100000   -0.685  2.40987 -3.01747
     6      1      6 0.15260000   -0.701  3.52324 -3.82295
     7      1      7 -0.20460000   -1.661  3.62395 -4.76365
     8      1      8 -0.10220000   -1.754  4.67468 -5.59208
     9      1      9 -0.10440000   -0.877  5.68835 -5.51457
    10      1     10 -0.10220000    0.087  5.60420 -4.58212
    11      1     11 -0.20460000    0.171  4.54879 -3.75810
    12      1     12 -0.08890000   -0.973  6.87862 -6.44198
    13      1     13 -0.10460000   -1.876  7.92409 -5.82806
    14      1     14 -0.10230000   -3.196  7.93447 -6.07430
    15      1     15 -0.20450000   -3.988  8.86611 -5.52281
    16      1     16 0.15270000   -3.517  9.82817 -4.70535
    17      1     17 -0.20450000   -2.190  9.80108 -4.47029
    18      1     18 -0.10230000   -1.387  8.87486 -5.01552
    19      1     19 -0.32070000   -4.404 10.74022 -4.18499
    20      1     20 0.02120000   -3.924 11.75529 -3.32757
    21      1     21 0.00810000   -5.091 12.63115 -2.88551
    22      1     22 -0.05100000   -5.277 13.88099 -3.48345
    23      1     23 -0.43200000   -4.539 13.85464 -2.13208
    24      1     24 0.14470000   -0.879  0.06060  0.43509
    25      1     25 0.14470000   -0.880  1.92709  0.45845
    26      1     26 0.17040000    0.215  0.06946 -1.80880
    27      1     27 0.10710000    0.163  3.18710 -1.30393
    28      1     28 0.10710000    1.301  2.31645 -2.44009
    29      1     29 0.15380000   -2.400  2.80988 -4.85577
    30      1     30 0.14830000   -2.562  4.70192 -6.34181
    31      1     31 0.14830000    0.824  6.41881 -4.48837
    32      1     32 0.15380000    0.989  4.55405 -3.01967
    33      1     33 0.10610000    0.038  7.30374 -6.63922
    34      1     34 0.10610000   -1.357  6.56471 -7.43941
    35      1     35 0.14900000   -3.638  7.17028 -6.73516
    36      1     36 0.15330000   -5.068  8.84129 -5.74796
    37      1     37 0.15330000   -1.713 10.54622 -3.81400
    38      1     38 0.14900000   -0.307  8.89434 -4.79151
    39      1     39 0.10700000   -3.478 11.28997 -2.41792
    40      1     40 0.10700000   -3.156 12.35203 -3.87078
    41      1     41 0.17080000   -5.898 12.15768 -2.31635
    42      1     42 0.14460000   -6.218 14.41311 -3.34534
    43      1     43 0.14460000   -4.588 14.25114 -4.24047

Bonds 

     1      1      2      1
     2      2      3      1
     3      3      4      3
     4      4      5      4
     5      5      6      5
     6      6      7      6
     7      7      8      7
     8      8      9      8
     9      9     10      9
    10     10     11      6
    11     11     12      9
    12     12     13     12
    13     13     14     13
    14     14     15     14
    15     15     16     15
    16     16     17     16
    17     17     18     13
    18     18     19     16
    19     19     20     19
    20     20     21     20
    21     21     22     21
    22     22     23     21
    23     23     24      2
    24     24     25      2
    25     25     26      3
    26     26     27      4
    27     27     28      4
    28     28     29      7
    29     29     30      8
    30     30     31     10
    31     31     32     11
    32     32     33     12
    33     33     34     12
    34     34     35     14
    35     35     36     15
    36     36     37     17
    37     37     38     18
    38     38     39     20
    39     39     40     20
    40     40     41     21
    41     41     42     22
    42     42     43     22
    43     43      3      2
    44     44     11     10
    45     45     18     17
    46     46     23     22

Angles 

     1      1      2      1      3
     2      2      1      3      4
     3      3      3      4      5
     4      4      4      5      6
     5      5      5      6      7
     6      6      6      7      8
     7      7      7      8      9
     8      8      8      9     10
     9      9      5      6     11
    10     10      8      9     12
    11     11      9     12     13
    12     12     12     13     14
    13     13     13     14     15
    14     14     14     15     16
    15     15     15     16     17
    16     16     12     13     18
    17     17     15     16     19
    18     18     16     19     20
    19     19     19     20     21
    20     20     20     21     22
    21     21     20     21     23
    22     22      1      2     24
    23     23      1      2     25
    24     24      1      3     26
    25     25      3      4     27
    26     26      3      4     28
    27     27      6      7     29
    28     28      7      8     30
    29     29      9     10     31
    30     30      6     11     32
    31     31      9     12     33
    32     32      9     12     34
    33     33     13     14     35
    34     34     14     15     36
    35     35     16     17     37
    36     36     13     18     38
    37     37     19     20     39
    38     38     19     20     40
    39     39     20     21     41
    40     40     21     22     42
    41     41     21     22     43
    42     42      1      3      2
    43     43     23     22     43
    44     44     18     17     37
    45     45      9      8     30
    46     46      3      2     25
    47     47     22     21     23
    48     48      2      3      4
    49     49      5      4     28
    50     50     39     20     40
    51     51     16     17     18
    52     52     10      9     12
    53     53     21     20     40
    54     54      6     11     10
    55     55     27      4     28
    56     56     22     21     41
    57     57     21     23     22
    58     58      7      6     11
    59     59      8      7     29
    60     60     10     11     32
    61     61     17     18     38
    62     62     23     22     42
    63     63     24      2     25
    64     64     33     12     34
    65     65     11     10     31
    66     66     21     20     39
    67     67     15     14     35
    68     68     21     22     23
    69     69      2      3     26
    70     70      9     10     11
    71     71      3      2     24
    72     72     13     12     34
    73     73     42     22     43
    74     74     23     21     41
    75     75     17     16     19
    76     76     13     12     33
    77     77      5      4     27
    78     78      1      2      3
    79     79     16     15     36
    80     80      4      3     26
    81     81     14     13     18
    82     82     13     18     17

Dihedrals

     1      1      4      3      1      2 
     2      2      5      4      3      1 
     3      3      6      5      4      3 
     4      4      7      6      5      4 
     5      5      8      7      6      5 
     6      6      9      8      7      6 
     7      7     10      9      8      7 
     8      8     13     12      9      8 
     9      9     14     13     12      9 
    10     10     15     14     13     12 
    11     11     16     15     14     13 
    12     12     17     16     15     14 
    13     13     20     19     16     15 
    14     14     21     20     19     16 
    15     15     22     21     20     19 
    16     16     23     21     20     22 
    17     17     24      2      1      3 
    18     18     25      2      1      3 
    19     19     26      3      1      2 
    20     20     42     22     21     23 
    21     21     43     22     21     23 
    22     22     32     11      6      7 
    23     23     28      4      3      2 
    24     24     38     18     13     12 
    25     25     38     18     17     16 
    26     26     29      7      6     11 
    27     27     28      4      3     26 
    28     28     31     10      9     12 
    29     29     43     22     21     41 
    30     30     36     15     14     13 
    31     31     33     12      9      8 
    32     32     26      3      2      1 
    33     33      5      4      3      2 
    34     34     18     17     16     15 
    35     35     10     11      6      7 
    36     36     33     12     13     14 
    37     37     36     15     16     17 
    38     38     16     17     18     13 
    39     39     42     22     21     41 
    40     40     19     16     15     14 
    41     41     41     21     20     39 
    42     42     42     22     21     20 
    43     43     30      8      7      6 
    44     44     43     22     21     20 
    45     45     27      4      3      1 
    46     46     26      3      2     25 
    47     47     36     15     14     35 
    48     48     36     15     16     19 
    49     49     34     12     13     18 
    50     50     40     20     19     16 
    51     51     32     11     10      9 
    52     52     23     21     20     19 
    53     53     17     18     13     12 
    54     54     11     10      9      8 
    55     55     30      8      9     12 
    56     56     17     18     13     14 
    57     57     12      9     10     11 
    58     58     35     14     13     18 
    59     59     33     12     13     18 
    60     60     37     17     16     15 
    61     61     38     18     13     14 
    62     62     34     12      9     10 
    63     63     41     21     20     40 
    64     64     10     11      6      5 
    65     65     18     13     12      9 
    66     66     29      7      8      9 
    67     67     11      6      5      4 
    68     68     19     16     17     18 
    69     69     40     20     21     23 
    70     70     37     17     16     19 
    71     71     32     11      6      5 
    72     72     43     22     23     21 
    73     73     24      2      3      4 
    74     74      9     10     11      6 
    75     75     27      4      3     26 
    76     76     28      4      5      6 
    77     77     41     21     23     22 
    78     78     42     22     23     21 
    79     79     33     12      9     10 
    80     80     39     20     21     22 
    81     81     27      4      3      2 
    82     82     28      4      3      1 
    83     83     41     21     22     23 
    84     84     34     12     13     14 
    85     85     31     10     11      6 
    86     86     37     17     18     13 
    87     87      4      3      2      1 
    88     88     26      3      2     24 
    89     89     34     12      9      8 
    90     90     35     14     13     12 
    91     91     39     20     21     23 
    92     92     40     20     21     22 
    93     93     27      4      5      6 
    94     94     30      8      7     29 
    95     95     24      2      3      1 
    96     96     35     14     15     16 
    97     97     38     18     17     37 
    98     98     26      3      4      5 
    99     99     13     12      9     10 
   100    100     29      7      6      5 
   101    101     31     10      9      8 
   102    102     39     20     19     16 
   103    103     25      2      3      4 
   104    104     25      2      3      1 
   105    105     41     21     20     19 
   106    106     12      9      8      7 
   107    107     20     19     16     17 
   108    108     30      8      9     10 
   109    109     18     13     14     15 
   110    110     32     11     10     31 
   111    111     11      6      7      8 

Impropers

     1      1      6     11      5      7 
     2      2      9     10     12      8 
     3      3     13     18     12     14 
     4      4     16     17     19     15 
     5      5      4     27      5      3 
     6      6      4      3     28      5 
     7      7      7     29      6      8 
     8      8      8      9     30      7 
     9      9     10      9     11     31 
    10     10     11     10      6     32 
    11     11     12     33      9     13 
    12     12     12      9     34     13 
    13     13     14     35     13     15 
    14     14     15     36     14     16 
    15     15     17     18     37     16 
    16     16     18     17     13     38 
    17     17     20     19     21     39 
    18     18     20     19     21     40 
    19     19     21     41     20     22 
    20     20     21     22     23     20 
    21     21     21     22     23     20 
