HEADER,  dgeba.mol  read w/ mol2lmp > all2lmp: v1.9 / 31 July 2023  Class: 0

43 atoms
46 bonds
82 angles
112 dihedrals
12 impropers

5 atom types
7 bond types
13 angle types
19 dihedral types
3 improper types

-8.207162791 5.626037209 xlo xhi
-7.749139535 4.774660465 ylo yhi
-3.261609302 3.530190698 zlo zhi

Masses

1   12.01100000  #  CA_90
2   12.01100000  #  CT_81
3    1.00800000  #  HA_91
4    1.00800000  #  HC_85
5   15.99900000  #  OS_507

Pair Coeffs  # lj/cut/coul/long

1         0.07000000      3.16269045 #  CA_90
2         0.06600000      3.11814551 #  CT_81
3         0.03000000      2.15597490 #  HA_91
4         0.03000000      2.22724678 #  HC_85
5         0.14000000      2.58360628 #  OS_507

Bond Coeffs  # harmonic

1       469.00000000      1.40000000 #  CA_90    CA_90   
2       317.00000000      1.51000000 #  CT_81    CA_90   
3       367.00000000      1.08000000 #  CA_90    HA_91   
4       450.00000000      1.36400000 #  OS_507   CA_90   
5       268.00000000      1.52900000 #  CT_81    CT_81   
6       340.00000000      1.09000000 #  CT_81    HC_85   
7       320.00000000      1.41000000 #  CT_81   OS_507   

Angle Coeffs  # harmonic

1        63.00000000    120.00000000 #  CA_90    CA_90     CA_90   
2        70.00000000    120.00000000 #  CT_81    CA_90     CA_90   
3        35.00000000    120.00000000 #  CA_90    CA_90     HA_91   
4        70.00000000    120.00000000 #  OS_507   CA_90     CA_90   
5        40.00000000    109.50000000 #  CA_90    CT_81     CA_90   
6        35.00000000    109.50000000 #  HC_85    CT_81     CA_90   
7        75.00000000    111.00000000 #  CT_81    OS_507    CA_90   
8        58.35000000    112.70000000 #  CT_81    CT_81     CT_81   
9        37.50000000    110.70000000 #  CT_81    CT_81     HC_85   
10       50.00000000    109.50000000 #  CT_81    CT_81    OS_507   
11       60.00000000    109.50000000 #  CT_81    OS_507    CT_81   
12       33.00000000    107.80000000 #  HC_85    CT_81     HC_85   
13       35.00000000    109.50000000 #  OS_507   CT_81     HC_85   

Dihedral Coeffs  # opls

1         0.00000000      7.25000000      0.00000000      0.00000000 #  CA_90    CA_90     CA_90     CA_90   
2         0.00000000      7.25000000      0.00000000      0.00000000 #  CT_81    CA_90     CA_90     CA_90   
3         0.00000000      7.25000000      0.00000000      0.00000000 #  CT_81    CA_90     CA_90     HA_91   
4         0.00000000      7.25000000      0.00000000      0.00000000 #  HA_91    CA_90     CA_90     HA_91   
5         0.00000000      7.25000000      0.00000000      0.00000000 #  CA_90    CA_90     CA_90     HA_91   
6         0.00000000      7.25000000      0.00000000      0.00000000 #  OS_507   CA_90     CA_90     CA_90   
7         0.00000000      7.25000000      0.00000000      0.00000000 #  OS_507   CA_90     CA_90     HA_91   
8         0.00000000      0.00000000      0.00000000      0.00000000 #  CA_90    CT_81     CA_90     CA_90   
9         0.00000000      0.00000000      0.00000000      0.00000000 #  HC_85    CT_81     CA_90     CA_90   
10        0.00000000      3.00000000      0.00000000      0.00000000 #  CT_81    OS_507    CA_90     CA_90   
11        0.00000000      0.00000000      0.30000000      0.00000000 #  HC_85    CT_81     CT_81     HC_85   
12        0.00000000      0.00000000      0.30000000      0.00000000 #  CT_81    CT_81     CT_81     HC_85   
13        0.00000000      0.00000000      0.46800000      0.00000000 #  OS_507   CT_81     CT_81     HC_85   
14        1.30000000     -0.05000000      0.20000000      0.00000000 #  CT_81    CT_81     CT_81    OS_507   
15       -0.55000000      0.00000000      0.00000000      0.00000000 #  OS_507   CT_81     CT_81    OS_507   
16        0.65000000     -0.25000000      0.67000000      0.00000000 #  CT_81    CT_81     OS_507    CT_81   
17        0.00000000      0.00000000      0.00000000      0.00000000 #  CA_90    OS_507    CT_81     CT_81   
18        0.00000000      0.00000000      0.76000000      0.00000000 #  HC_85    CT_81     OS_507    CA_90   
19        0.00000000      0.00000000      0.76000000      0.00000000 #  HC_85    CT_81     OS_507    CT_81   

Improper Coeffs  # cvff

1         5.00000000    -1     2 #  CA_90    CA_90     CA_90     CT_81     nb==3   
2         5.00000000    -1     2 #  CA_90    CA_90     CA_90     HA_91     nb==3   
3         5.00000000    -1     2 #  CA_90    CA_90     CA_90     OS_507    nb==3   

Atoms # full

 1  1  5   -0.809767   -6.670862791     3.582160465    -0.846009302      0    0    0 #  OS_507/O
 2  1  2   -0.109767   -6.737762791     2.449460465     0.194990698      0    0    0 #  CT_81/C
 3  1  2   -0.109767   -5.792862791     3.456460465     0.412490698      0    0    0 #  CT_81/C
 4  1  2   -0.109767   -4.345862791     3.232960465    -0.014109302      0    0    0 #  CT_81/C
 5  1  5   -0.809767   -3.568462791     2.921060465     1.123690698      0    0    0 #  OS_507/O
 6  1  1    0.138233   -2.221762791     2.691760465     0.973690698      0    0    0 #  CA_90/C
 7  1  1    0.138233   -1.501962791     2.342360465     2.057690698      0    0    0 #  CA_90/C
 8  1  1    0.138233   -0.184662791     2.095860465     2.003190698      0    0    0 #  CA_90/C
 9  1  1    0.138233    0.483037209     2.189360465     0.841790698      0    0    0 #  CA_90/C
10  1  1    0.138233   -0.218362791     2.529560465    -0.252009302      0    0    0 #  CA_90/C
11  1  1    0.138233   -1.536762791     2.773560465    -0.184809302      0    0    0 #  CA_90/C
12  1  2   -0.109767    1.966137209     1.905060465     0.766490698      0    0    0 #  CT_81/C
13  1  1    0.138233    2.185537209     0.432660465     0.501790698      0    0    0 #  CA_90/C
14  1  1    0.138233    2.317637209    -0.444039535     1.510290698      0    0    0 #  CA_90/C
15  1  1    0.138233    2.504037209    -1.749139535     1.263290698      0    0    0 #  CA_90/C
16  1  1    0.138233    2.566837209    -2.251139535     0.014590698      0    0    0 #  CA_90/C
17  1  1    0.138233    2.428637209    -1.357339535    -0.985509302      0    0    0 #  CA_90/C
18  1  1    0.138233    2.241737209    -0.048739535    -0.750809302      0    0    0 #  CA_90/C
19  1  5   -0.809767    2.759937209    -3.602739535    -0.142609302      0    0    0 #  OS_507/O
20  1  2   -0.109767    2.829937209    -4.142539535    -1.446409302      0    0    0 #  CT_81/C
21  1  2   -0.109767    3.007137209    -5.654539535    -1.354909302      0    0    0 #  CT_81/C
22  1  2   -0.109767    4.270437209    -6.213539535    -1.568809302      0    0    0 #  CT_81/C
23  1  5   -0.809767    3.296637209    -6.209239535    -2.761609302      0    0    0 #  OS_507/O
24  1  4    0.310233   -7.707162791     2.499460465     0.689490698      0    0    0 #  HC_85/H
25  1  4    0.310233   -6.465462791     1.517760465    -0.298009302      0    0    0 #  HC_85/H
26  1  4    0.310233   -5.999362791     4.274660465     1.109890698      0    0    0 #  HC_85/H
27  1  4    0.310233   -4.266362791     2.396460465    -0.745809302      0    0    0 #  HC_85/H
28  1  4    0.310233   -3.971562791     4.178460465    -0.471009302      0    0    0 #  HC_85/H
29  1  3   -0.171767   -2.016462791     2.253760465     3.030190698      0    0    0 #  HA_91/H
30  1  3   -0.171767    0.350837209     1.810860465     2.923890698      0    0    0 #  HA_91/H
31  1  3   -0.171767    0.295037209     2.607760465    -1.225009302      0    0    0 #  HA_91/H
32  1  3   -0.171767   -2.040662791     3.045660465    -1.125709302      0    0    0 #  HA_91/H
33  1  4    0.310233    2.443437209     2.519960465    -0.030609302      0    0    0 #  HC_85/H
34  1  4    0.310233    2.470337209     2.212960465     1.711090698      0    0    0 #  HC_85/H
35  1  3   -0.171767    2.270837209    -0.092739535     2.554390698      0    0    0 #  HA_91/H
36  1  3   -0.171767    2.608537209    -2.439339535     2.118290698      0    0    0 #  HA_91/H
37  1  3   -0.171767    2.462837209    -1.673439535    -2.040009302      0    0    0 #  HA_91/H
38  1  3   -0.171767    2.130237209     0.641160465    -1.604209302      0    0    0 #  HA_91/H
39  1  4    0.310233    1.874137209    -3.939639535    -1.983209302      0    0    0 #  HC_85/H
40  1  4    0.310233    3.681037209    -3.669339535    -1.987709302      0    0    0 #  HC_85/H
41  1  4    0.310233    2.215737209    -6.233139535    -0.867809302      0    0    0 #  HC_85/H
42  1  4    0.310233    4.459637209    -7.249139535    -1.288709302      0    0    0 #  HC_85/H
43  1  4    0.310233    5.126037209    -5.591439535    -1.825809302      0    0    0 #  HC_85/H

Bonds

  1   7     2     1  
  2   7     3     1  
  3   5     2     3  
  4   6     2    24  
  5   6     2    25  
  6   5     3     4  
  7   6     3    26  
  8   7     4     5  
  9   6     4    27  
 10   6     4    28  
 11   4     5     6  
 12   1     6     7  
 13   1     6    11  
 14   1     7     8  
 15   3     7    29  
 16   1     8     9  
 17   3     8    30  
 18   1     9    10  
 19   2    12     9  
 20   1    10    11  
 21   3    10    31  
 22   3    11    32  
 23   2    12    13  
 24   6    12    33  
 25   6    12    34  
 26   1    13    14  
 27   1    13    18  
 28   1    14    15  
 29   3    14    35  
 30   1    15    16  
 31   3    15    36  
 32   1    16    17  
 33   4    19    16  
 34   1    17    18  
 35   3    17    37  
 36   3    18    38  
 37   7    20    19  
 38   5    20    21  
 39   6    20    39  
 40   6    20    40  
 41   5    21    22  
 42   7    21    23  
 43   6    21    41  
 44   7    22    23  
 45   6    22    42  
 46   6    22    43  

Angles

  1   11    2     1     3  
  2   9     3     2    24  
  3   13    1     2    24  
  4   10    3     2     1  
  5   9     3     2    25  
  6   12   24     2    25  
  7   13    1     2    25  
  8   10    2     3     1  
  9   10    4     3     1  
 10   9     4     3    26  
 11   9     2     3    26  
 12   13    1     3    26  
 13   8     2     3     4  
 14   9     3     4    28  
 15   10    3     4     5  
 16   9     3     4    27  
 17   13    5     4    28  
 18   12   27     4    28  
 19   13    5     4    27  
 20   7     4     5     6  
 21   1     7     6    11  
 22   4     5     6     7  
 23   4     5     6    11  
 24   1     6     7     8  
 25   3     8     7    29  
 26   3     6     7    29  
 27   3     9     8    30  
 28   3     7     8    30  
 29   1     7     8     9  
 30   2    12     9    10  
 31   1     8     9    10  
 32   2    12     9     8  
 33   3     9    10    31  
 34   3    11    10    31  
 35   1     9    10    11  
 36   3     6    11    32  
 37   3    10    11    32  
 38   1     6    11    10  
 39   12   33    12    34  
 40   6    34    12    13  
 41   5     9    12    13  
 42   6    34    12     9  
 43   6    33    12    13  
 44   6    33    12     9  
 45   2    12    13    14  
 46   2    12    13    18  
 47   1    14    13    18  
 48   3    15    14    35  
 49   1    13    14    15  
 50   3    13    14    35  
 51   3    16    15    36  
 52   3    14    15    36  
 53   1    14    15    16  
 54   4    19    16    15  
 55   1    15    16    17  
 56   4    19    16    17  
 57   3    16    17    37  
 58   1    16    17    18  
 59   3    18    17    37  
 60   3    13    18    38  
 61   1    13    18    17  
 62   3    17    18    38  
 63   7    20    19    16  
 64   9    21    20    40  
 65   13   19    20    40  
 66   9    21    20    39  
 67   10   21    20    19  
 68   12   39    20    40  
 69   13   19    20    39  
 70   10   20    21    23  
 71   9    20    21    41  
 72   13   23    21    41  
 73   8    20    21    22  
 74   10   22    21    23  
 75   9    22    21    41  
 76   9    21    22    42  
 77   10   21    22    23  
 78   13   23    22    42  
 79   9    21    22    43  
 80   12   42    22    43  
 81   13   23    22    43  
 82   11   21    23    22  

Dihedrals

  1   19   26     3     1     2  
  2   19   25     2     1     3  
  3   19   24     2     1     3  
  4   16    4     3     1     2  
  5   14    4     3     2     1  
  6   11   24     2     3    26  
  7   11   25     2     3    26  
  8   13    1     2     3    26  
  9   13    1     3     4    28  
 10   12    2     3     4    27  
 11   12    4     3     2    25  
 12   13    1     3     4    27  
 13   11   26     3     4    27  
 14   12    2     3     4    28  
 15   13    1     3     2    25  
 16   14    2     3     4     5  
 17   12    4     3     2    24  
 18   13    1     3     2    24  
 19   11   26     3     4    28  
 20   15    1     3     4     5  
 21   17    6     5     4     3  
 22   13    5     4     3    26  
 23   18   28     4     5     6  
 24   18   27     4     5     6  
 25   10    4     5     6    11  
 26   10    4     5     6     7  
 27   7     5     6    11    32  
 28   1     7     6    11    10  
 29   5    11     6     7    29  
 30   5     7     6    11    32  
 31   7     5     6     7    29  
 32   6     5     6     7     8  
 33   6     5     6    11    10  
 34   5     6     7     8    30  
 35   1     8     7     6    11  
 36   4    29     7     8    30  
 37   1     6     7     8     9  
 38   1     7     8     9    10  
 39   2    12     9     8     7  
 40   5     9     8     7    29  
 41   9    34    12     9    10  
 42   1     8     9    10    11  
 43   5     8     9    10    31  
 44   3    12     9     8    30  
 45   8    13    12     9     8  
 46   8    13    12     9    10  
 47   9    33    12     9     8  
 48   3    12     9    10    31  
 49   9    33    12     9    10  
 50   5    10     9     8    30  
 51   9    34    12     9     8  
 52   2    12     9    10    11  
 53   4    31    10    11    32  
 54   5     9    10    11    32  
 55   1     6    11    10     9  
 56   5     6    11    10    31  
 57   8     9    12    13    18  
 58   8     9    12    13    14  
 59   9    34    12    13    14  
 60   2    12    13    14    15  
 61   5    18    13    14    35  
 62   2    12    13    18    17  
 63   3    12    13    18    38  
 64   5    14    13    18    38  
 65   9    34    12    13    18  
 66   3    12    13    14    35  
 67   1    14    13    18    17  
 68   9    33    12    13    14  
 69   9    33    12    13    18  
 70   1    15    14    13    18  
 71   4    35    14    15    36  
 72   1    13    14    15    16  
 73   5    13    14    15    36  
 74   1    14    15    16    17  
 75   6    19    16    15    14  
 76   5    16    15    14    35  
 77   7    19    16    17    37  
 78   10   20    19    16    15  
 79   10   20    19    16    17  
 80   7    19    16    15    36  
 81   5    17    16    15    36  
 82   5    15    16    17    37  
 83   1    15    16    17    18  
 84   6    19    16    17    18  
 85   4    37    17    18    38  
 86   5    16    17    18    38  
 87   1    13    18    17    16  
 88   5    13    18    17    37  
 89   17   16    19    20    21  
 90   18   39    20    19    16  
 91   18   40    20    19    16  
 92   15   19    20    21    23  
 93   13   19    20    21    41  
 94   11   39    20    21    41  
 95   14   22    21    20    19  
 96   11   40    20    21    41  
 97   12   20    21    22    43  
 98   13   23    21    22    43  
 99   11   41    21    22    43  
 100  13   23    21    20    40  
 101  12   20    21    22    42  
 102  12   22    21    20    40  
 103  11   41    21    22    42  
 104  14   20    21    22    23  
 105  13   23    21    22    42  
 106  12   22    21    20    39  
 107  16   20    21    23    22  
 108  13   23    21    20    39  
 109  13   23    22    21    41  
 110  19   41    21    23    22  
 111  19   42    22    23    21  
 112  19   43    22    23    21  

Impropers

  1   3     7     6    11     5  
  2   2     6     7     8    29  
  3   2     7     8     9    30  
  4   1     8     9    10    12  
  5   2     9    10    11    31  
  6   2     6    11    10    32  
  7   1    14    13    18    12  
  8   2    13    14    15    35  
  9   2    14    15    16    36  
 10   3    15    16    17    19  
 11   2    16    17    18    37  
 12   2    13    18    17    38  
