HEADER,  dab.mol  read w/ mol2lmp > atom_typing v1.11 / 14 April 2025 w/DREIDING atom-types > all2lmp: v1.22 / 14 April 2025  Class: d

18 atoms
17 bonds
30 angles
39 dihedrals
2 impropers

4 atom types
4 bond types
2 angle types
2 dihedral types
1 improper types

-3.728616667 4.360883333 xlo xhi
-1.859222222 1.726977778 ylo yhi
-1.525777778 1.439722222 zlo zhi

Atom Type Labels

 1  C_3
 2  H_
 3  H___HB
 4  N_3

Bond Type Labels

 1  C_3-C_3
 2  H_-C_3
 3  C_3-N_3
 4  H___HB-N_3

Angle Type Labels

 1  X-C_3-X
 2  X-N_3-X

Dihedral Type Labels

 1  X-C_3-C_3-X
 2  X-C_3-N_3-X

Improper Type Labels

 1  N_3-X-X-X-nb==3

Masses

1   12.01100000  #  C_3  
2    1.00800000  #  H_   
3    1.00800000  #  H___HB
4   14.00700000  #  N_3  

Pair Coeffs  # lj/cut/coul/long

1         0.09510000      3.47299047 #  C_3  
2         0.01520000      2.84642140 #  H_   
3         0.00010000      2.84642129 #  H___HB
4         0.07740000      3.26256020 #  N_3  

Bond Coeffs  # harmonic

1       350.00000000      1.53000000 #  C_3        C_3   
2       350.00000000      1.09000000 #  H_         C_3   
3       350.00000000      1.46200000 #  C_3        N_3   
4       350.00000000      1.02200000 #  H___HB     N_3   

Angle Coeffs  # harmonic

1        50.00000000    109.47100000 #  X         C_3          X   
2        50.00000000    106.70000000 #  X         N_3          X   

Dihedral Coeffs  # harmonic

1         0.11110000               1               3 #  X         C_3       C_3          X   
2         0.11110000               1               3 #  X         C_3       N_3          X   

Improper Coeffs  # umbrella

1         0.00000000      0.00000000 #  N_3        X         X         X       nb==3   

Atoms # full

  1     1   4   -0.315311   -3.164516667     0.063577778    -0.045477778      0    0    0 #  N_3/N
  2     1   1   -0.005316   -1.892916667    -0.653722222    -0.085677778      0    0    0 #  C_3/C
  3     1   3    0.107475   -3.224816667     0.717277778    -0.859877778      0    0    0 #  H___HB/H
  4     1   3    0.107475   -3.228616667     0.617277778     0.839622222      0    0    0 #  H___HB/H
  5     1   1   -0.040977   -0.705316667     0.316577778    -0.019677778      0    0    0 #  C_3/C
  6     1   2    0.044488   -1.843516667    -1.245122222    -1.025777778      0    0    0 #  H_/H
  7     1   2    0.044488   -1.849516667    -1.359222222     0.772622222      0    0    0 #  H_/H
  8     1   1   -0.040977    0.625283333    -0.443222222    -0.073077778      0    0    0 #  C_3/C
  9     1   2    0.028839   -0.760616667     0.899577778     0.925922222      0    0    0 #  H_/H
  10    1   2    0.028839   -0.760716667     1.021677778    -0.878077778      0    0    0 #  H_/H
  11    1   1   -0.005316    1.815083333     0.518577778    -0.007877778      0    0    0 #  C_3/C
  12    1   2    0.028839    0.680483333    -1.023122222    -1.020677778      0    0    0 #  H_/H
  13    1   2    0.028839    0.680183333    -1.150922222     0.783222222      0    0    0 #  H_/H
  14    1   4   -0.315311    3.069283333    -0.223822222    -0.082877778      0    0    0 #  N_3/N
  15    1   2    0.044488    1.781783333     1.101677778     0.939722222      0    0    0 #  H_/H
  16    1   2    0.044488    1.763983333     1.226977778    -0.863677778      0    0    0 #  H_/H
  17    1   3    0.107475    3.153583333    -0.842722222     0.756322222      0    0    0 #  H___HB/H
  18    1   3    0.107475    3.860883333     0.458677778    -0.054677778      0    0    0 #  H___HB/H

Bonds

  1   3     2     1  
  2   4     3     1  
  3   4     4     1  
  4   1     2     5  
  5   2     6     2  
  6   2     7     2  
  7   1     5     8  
  8   2     9     5  
  9   2    10     5  
 10   1     8    11  
 11   2    12     8  
 12   2    13     8  
 13   3    11    14  
 14   2    15    11  
 15   2    16    11  
 16   4    17    14  
 17   4    18    14  

Angles

  1   2     2     1     3  
  2   2     3     1     4  
  3   2     2     1     4  
  4   1     5     2     7  
  5   1     1     2     5  
  6   1     1     2     7  
  7   1     5     2     6  
  8   1     1     2     6  
  9   1     6     2     7  
 10   1     2     5    10  
 11   1     8     5    10  
 12   1     9     5    10  
 13   1     2     5     9  
 14   1     8     5     9  
 15   1     2     5     8  
 16   1     5     8    11  
 17   1    11     8    12  
 18   1     5     8    13  
 19   1    12     8    13  
 20   1     5     8    12  
 21   1    11     8    13  
 22   1    15    11    16  
 23   1     8    11    14  
 24   1    14    11    16  
 25   1     8    11    16  
 26   1    14    11    15  
 27   1     8    11    15  
 28   2    11    14    17  
 29   2    11    14    18  
 30   2    17    14    18  

Dihedrals

  1   2     4     1     2     7  
  2   2     3     1     2     7  
  3   2     4     1     2     6  
  4   2     3     1     2     6  
  5   2     4     1     2     5  
  6   2     3     1     2     5  
  7   1     1     2     5     8  
  8   1     6     2     5     9  
  9   1     7     2     5     8  
 10   1     1     2     5    10  
 11   1     6     2     5     8  
 12   1     7     2     5    10  
 13   1     1     2     5     9  
 14   1     6     2     5    10  
 15   1     7     2     5     9  
 16   1    10     5     8    13  
 17   1     9     5     8    11  
 18   1     2     5     8    11  
 19   1    10     5     8    12  
 20   1     9     5     8    13  
 21   1     2     5     8    13  
 22   1    10     5     8    11  
 23   1     9     5     8    12  
 24   1     2     5     8    12  
 25   1    13     8    11    14  
 26   1     5     8    11    15  
 27   1    12     8    11    15  
 28   1    13     8    11    16  
 29   1     5     8    11    14  
 30   1    12     8    11    14  
 31   1    13     8    11    15  
 32   1     5     8    11    16  
 33   1    12     8    11    16  
 34   2     8    11    14    17  
 35   2    16    11    14    17  
 36   2    15    11    14    18  
 37   2    15    11    14    17  
 38   2     8    11    14    18  
 39   2    16    11    14    18  

Impropers

  1   1     1     2     3     4  
  2   1    14    11    17    18  
