HEADER,  peg_dab_C_partial.mol  read w/ mol2lmp > atom_typing v1.11 / 14 April 2025 w/DREIDING atom-types > all2lmp: v1.22 / 14 April 2025  Class: d

22 atoms
19 bonds
34 angles
42 dihedrals
1 impropers

5 atom types
6 bond types
3 angle types
4 dihedral types
1 improper types

-3.871036364 4.778063636 xlo xhi
-3.073518182 3.121781818 ylo yhi
-3.623327273 2.191772727 zlo zhi

Atom Type Labels

 1  C_3
 2  H_
 3  H___HB
 4  N_3
 5  O_3

Bond Type Labels

 1  C_3-C_3
 2  H_-C_3
 3  C_3-N_3
 4  C_3-O_3
 5  H___HB-N_3
 6  H___HB-O_3

Angle Type Labels

 1  X-C_3-X
 2  X-N_3-X
 3  X-O_3-X

Dihedral Type Labels

 1  X-C_3-C_3-X
 2  X-C_3-N_3-X
 3  X-O_3-C_3-X
 4  X-N_3-C_3-X

Improper Type Labels

 1  N_3-X-X-X-nb==3

Masses

1   12.01100000  #  C_3  
2    1.00800000  #  H_   
3    1.00800000  #  H___HB
4   14.00700000  #  N_3  
5   15.99900000  #  O_3  

Pair Coeffs  # lj/cut/coul/long

1         0.09510000      3.47299047 #  C_3  
2         0.01520000      2.84642140 #  H_   
3         0.00010000      2.84642129 #  H___HB
4         0.07740000      3.26256020 #  N_3  
5         0.09570000      3.03315378 #  O_3  

Bond Coeffs  # harmonic

1       350.00000000      1.53000000 #  C_3        C_3   
2       350.00000000      1.09000000 #  H_         C_3   
3       350.00000000      1.46200000 #  C_3        N_3   
4       350.00000000      1.42000000 #  C_3        O_3   
5       350.00000000      1.02200000 #  H___HB     N_3   
6       350.00000000      0.98000000 #  H___HB     O_3   

Angle Coeffs  # harmonic

1        50.00000000    109.47100000 #  X         C_3          X   
2        50.00000000    106.70000000 #  X         N_3          X   
3        50.00000000    104.51000000 #  X         O_3          X   

Dihedral Coeffs  # harmonic

1         0.11110000               1               3 #  X         C_3       C_3          X   
2         0.11110000               1               3 #  X         C_3       N_3          X   
3         0.11110000               1               3 #  X         O_3       C_3          X   
4         0.11110000               1               3 #  X         N_3       C_3          X   

Improper Coeffs  # umbrella

1         0.00000000      0.00000000 #  N_3        X         X         X       nb==3   

Atoms # full

  1     1   5   -0.377443   -3.371036364    -0.848318182    -0.966627273      0    0    0 #  O_3/O
  2     1   1    0.071922   -2.747236364    -0.628318182     0.299872727      0    0    0 #  C_3/C
  3     1   1    0.101838   -1.257636364    -1.096918182     0.306572727      0    0    0 #  C_3/C
  4     1   5   -0.354933   -1.177836364    -2.445718182    -0.091127273      0    0    0 #  O_3/O
  5     1   1    0.040057   -0.282036364    -0.218018182    -0.542327273      0    0    0 #  C_3/C
  6     1   2    0.061667   -3.284836364    -1.249318182     1.052372727      0    0    0 #  H_/H
  7     1   2    0.061667   -2.783436364     0.441181818     0.598072727      0    0    0 #  H_/H
  8     1   2    0.068107   -0.885636364    -1.076818182     1.353672727      0    0    0 #  H_/H
  9     1   3    0.163030   -1.693036364    -2.573518182    -0.929727273      0    0    0 #  H___HB/H
  10    2   2    0.000000   -1.415636364    -1.776718182    -3.123327273      0    0    0 #  H_/H
  11    1   2    0.029351    2.614863636     2.199481818     1.691772727      0    0    0 #  H_/H
  12    1   2    0.050699    1.832163636    -0.186318182     1.505972727      0    0    0 #  H_/H
  13    1   1   -0.036420    2.840363636     1.621081818     0.766872727      0    0    0 #  C_3/C
  14    1   4   -0.399063    0.471663636     0.840181818     0.187572727      0    0    0 #  N_3/N
  15    1   1    0.011118    1.844563636     0.441781818     0.587972727      0    0    0 #  C_3/C
  16    1   1   -0.040527    4.278063636     1.039181818     0.803972727      0    0    0 #  C_3/C
  17    3   3    0.000000    0.422763636     2.621781818    -1.616127273      0    0    0 #  H___HB/H
  18    1   2    0.029351    2.768563636     2.309981818    -0.103327273      0    0    0 #  H_/H
  19    1   2    0.050699    2.272763636    -0.164918182    -0.237027273      0    0    0 #  H_/H
  20    1   2    0.053689   -0.828236364     0.229081818    -1.397627273      0    0    0 #  H_/H
  21    1   2    0.053689    0.446963636    -0.908618182    -1.018227273      0    0    0 #  H_/H
  22    1   3    0.131518   -0.066136364     1.429781818     0.870772727      0    0    0 #  H___HB/H

Bonds

  1   4     2     1  
  2   1     2     3  
  3   2     6     2  
  4   2     7     2  
  5   4     3     4  
  6   1     3     5  
  7   2     8     3  
  8   6     9     4  
  9   3     5    14  
 10   2    20     5  
 11   2    21     5  
 12   2    11    13  
 13   2    12    15  
 14   1    13    15  
 15   1    13    16  
 16   2    18    13  
 17   3    15    14  
 18   5    22    14  
 19   2    19    15  

Angles

  1   1     3     2     7  
  2   1     3     2     6  
  3   1     1     2     7  
  4   1     1     2     6  
  5   1     1     2     3  
  6   1     6     2     7  
  7   1     4     3     5  
  8   1     4     3     8  
  9   1     5     3     8  
 10   1     2     3     5  
 11   1     2     3     8  
 12   1     2     3     4  
 13   3     3     4     9  
 14   1     3     5    21  
 15   1     3     5    14  
 16   1     3     5    20  
 17   1    14     5    21  
 18   1    20     5    21  
 19   1    14     5    20  
 20   1    11    13    15  
 21   1    11    13    18  
 22   1    15    13    16  
 23   1    16    13    18  
 24   1    15    13    18  
 25   1    11    13    16  
 26   2     5    14    15  
 27   2    15    14    22  
 28   2     5    14    22  
 29   1    12    15    14  
 30   1    13    15    19  
 31   1    12    15    13  
 32   1    12    15    19  
 33   1    14    15    19  
 34   1    13    15    14  

Dihedrals

  1   1     1     2     3     4  
  2   1     7     2     3     8  
  3   1     6     2     3     8  
  4   1     1     2     3     5  
  5   1     1     2     3     8  
  6   1     2     3     5    20  
  7   3     9     4     3     2  
  8   1     4     3     5    21  
  9   1     4     3     2     7  
 10   1     8     3     5    21  
 11   1     4     3     5    14  
 12   1     4     3     5    20  
 13   1     4     3     2     6  
 14   1     5     3     2     7  
 15   1     2     3     5    21  
 16   1     8     3     5    14  
 17   1     8     3     5    20  
 18   3     9     4     3     5  
 19   3     9     4     3     8  
 20   1     5     3     2     6  
 21   1     2     3     5    14  
 22   2    21     5    14    22  
 23   2     3     5    14    22  
 24   2    20     5    14    22  
 25   2     3     5    14    15  
 26   1    11    13    15    12  
 27   1    16    13    15    19  
 28   1    18    13    15    19  
 29   1    11    13    15    14  
 30   1    11    13    15    19  
 31   4    15    14     5    21  
 32   4     5    14    15    13  
 33   4     5    14    15    19  
 34   4    15    14     5    20  
 35   4     5    14    15    12  
 36   1    12    15    13    16  
 37   1    14    15    13    16  
 38   2    19    15    14    22  
 39   1    12    15    13    18  
 40   2    13    15    14    22  
 41   1    14    15    13    18  
 42   2    12    15    14    22  

Impropers

  1   1    14     5    15    22  
