HEADER,  peg_dab_U_partial.mol  read w/ mol2lmp > atom_typing v1.11 / 14 April 2025 w/DREIDING atom-types > all2lmp: v1.22 / 14 April 2025  Class: d; BondingIDs=[5,17,5,14]

22 atoms
20 bonds
34 angles
36 dihedrals
1 impropers

5 atom types
6 bond types
3 angle types
4 dihedral types
1 improper types

-4.075786364 4.804113636 xlo xhi
-3.583227273 3.023572727 ylo yhi
-2.724636364 2.158363636 zlo zhi

Atom Type Labels

 1  C_3
 2  H_
 3  H___HB
 4  N_3
 5  O_3

Bond Type Labels

 1  C_3-C_3
 2  H_-C_3
 3  C_3-N_3
 4  C_3-O_3
 5  H___HB-N_3
 6  H___HB-O_3

Angle Type Labels

 1  X-C_3-X
 2  X-N_3-X
 3  X-O_3-X

Dihedral Type Labels

 1  X-C_3-C_3-X
 2  X-C_3-N_3-X
 3  X-O_3-C_3-X
 4  X-N_3-C_3-X

Improper Type Labels

 1  N_3-X-X-X-nb==3

Masses

1   12.01100000  #  C_3  
2    1.00800000  #  H_   
3    1.00800000  #  H___HB
4   14.00700000  #  N_3  
5   15.99900000  #  O_3  

Pair Coeffs  # lj/cut/coul/long

1         0.09510000      3.47299047 #  C_3  
2         0.01520000      2.84642140 #  H_   
3         0.00010000      2.84642129 #  H___HB
4         0.07740000      3.26256020 #  N_3  
5         0.09570000      3.03315378 #  O_3  

Bond Coeffs  # harmonic

1       350.00000000      1.53000000 #  C_3        C_3   
2       350.00000000      1.09000000 #  H_         C_3   
3       350.00000000      1.46200000 #  C_3        N_3   
4       350.00000000      1.42000000 #  C_3        O_3   
5       350.00000000      1.02200000 #  H___HB     N_3   
6       350.00000000      0.98000000 #  H___HB     O_3   

Angle Coeffs  # harmonic

1        50.00000000    109.47100000 #  X         C_3          X   
2        50.00000000    106.70000000 #  X         N_3          X   
3        50.00000000    104.51000000 #  X         O_3          X   

Dihedral Coeffs  # harmonic

1         0.11110000               1               3 #  X         C_3       C_3          X   
2         0.11110000               1               3 #  X         C_3       N_3          X   
3         0.11110000               1               3 #  X         O_3       C_3          X   
4         0.11110000               1               3 #  X         N_3       C_3          X   

Improper Coeffs  # umbrella

1         0.00000000      0.00000000 #  N_3        X         X         X       nb==3   

Atoms # full

  1     1   5   -0.377529   -3.575786364    -1.141427273    -1.194436364      0    0    0 #  O_3/O
  2     1   1    0.069906   -2.842986364    -0.868327273    -0.017936364      0    0    0 #  C_3/C
  3     1   1    0.082038   -1.443386364    -1.495627273    -0.109536364      0    0    0 #  C_3/C
  4     1   5   -0.357109   -1.528986364    -2.891827273    -0.254536364      0    0    0 #  O_3/O
  5     1   1   -0.037405   -0.603186364    -0.879227273    -1.235136364      0    0    0 #  C_3/C
  6     1   2    0.061578   -3.364986364    -1.314427273     0.858363636      0    0    0 #  H_/H
  7     1   2    0.061578   -2.717386364     0.229172727     0.138763636      0    0    0 #  H_/H
  8     1   2    0.065798   -0.916486364    -1.287627273     0.846963636      0    0    0 #  H_/H
  9     1   2    0.026415   -0.495486364     0.215072727    -1.076036364      0    0    0 #  H_/H
  10    1   2    0.026415    0.409713636    -1.334927273    -1.239436364      0    0    0 #  H_/H
  11    1   3    0.162952   -1.916886364    -3.083227273    -1.148536364      0    0    0 #  H___HB/H
  12    1   2    0.026415   -1.076886364    -1.052627273    -2.224636364      0    0    0 #  H_/H
  13    2   2    0.028839    2.946913636     2.351572727     1.658363636      0    0    0 #  H_/H
  14    2   3    0.107475    0.473713636     2.119172727     1.571763636      0    0    0 #  H___HB/H
  15    2   2    0.044488    1.814213636     0.119172727     1.445963636      0    0    0 #  H_/H
  16    2   1   -0.040977    2.988613636     1.793972727     0.696863636      0    0    0 #  C_3/C
  17    2   4   -0.315311    0.524913636     1.589072727     0.671463636      0    0    0 #  N_3/N
  18    2   1   -0.005316    1.782313636     0.848872727     0.607663636      0    0    0 #  C_3/C
  19    2   1   -0.040977    4.304113636     1.010572727     0.618463636      0    0    0 #  C_3/C
  20    2   3    0.107475    0.475213636     2.266172727    -0.124336364      0    0    0 #  H___HB/H
  21    2   2    0.028839    2.944713636     2.523572727    -0.141536364      0    0    0 #  H_/H
  22    2   2    0.044488    1.818013636     0.282872727    -0.348536364      0    0    0 #  H_/H

Bonds

  1   4     2     1  
  2   1     2     3  
  3   2     6     2  
  4   2     7     2  
  5   4     3     4  
  6   1     3     5  
  7   2     8     3  
  8   6    11     4  
  9   2     9     5  
 10   2    10     5  
 11   2    12     5  
 12   2    13    16  
 13   5    14    17  
 14   2    15    18  
 15   1    16    18  
 16   1    16    19  
 17   2    21    16  
 18   3    18    17  
 19   5    20    17  
 20   2    22    18  

Angles

  1   1     3     2     7  
  2   1     3     2     6  
  3   1     1     2     7  
  4   1     1     2     6  
  5   1     1     2     3  
  6   1     6     2     7  
  7   1     4     3     5  
  8   1     4     3     8  
  9   1     5     3     8  
 10   1     2     3     5  
 11   1     2     3     8  
 12   1     2     3     4  
 13   3     3     4    11  
 14   1     3     5     9  
 15   1     3     5    12  
 16   1     9     5    10  
 17   1     9     5    12  
 18   1    10     5    12  
 19   1     3     5    10  
 20   1    19    16    21  
 21   1    13    16    18  
 22   1    13    16    21  
 23   1    18    16    21  
 24   1    18    16    19  
 25   1    13    16    19  
 26   2    14    17    18  
 27   2    18    17    20  
 28   2    14    17    20  
 29   1    17    18    22  
 30   1    16    18    17  
 31   1    15    18    17  
 32   1    16    18    22  
 33   1    15    18    16  
 34   1    15    18    22  

Dihedrals

  1   1     1     2     3     4  
  2   1     7     2     3     8  
  3   1     6     2     3     8  
  4   1     1     2     3     5  
  5   1     1     2     3     8  
  6   1     8     3     5    10  
  7   1     4     3     5    12  
  8   1     4     3     5     9  
  9   3    11     4     3     5  
 10   3    11     4     3     8  
 11   1     4     3     2     7  
 12   1     2     3     5    10  
 13   1     8     3     5     9  
 14   1     8     3     5    12  
 15   3    11     4     3     2  
 16   1     4     3     2     6  
 17   1     5     3     2     7  
 18   1     2     3     5     9  
 19   1     2     3     5    12  
 20   1     4     3     5    10  
 21   1     5     3     2     6  
 22   1    13    16    18    15  
 23   1    21    16    18    22  
 24   1    13    16    18    17  
 25   1    19    16    18    22  
 26   1    13    16    18    22  
 27   4    14    17    18    16  
 28   4    14    17    18    22  
 29   4    14    17    18    15  
 30   4    20    17    18    22  
 31   1    17    18    16    19  
 32   1    15    18    16    21  
 33   2    15    18    17    20  
 34   1    17    18    16    21  
 35   2    16    18    17    20  
 36   1    15    18    16    19  

Impropers

  1   1    17    14    18    20  
