LAMMPS data file via write_data, version 29 Oct 2020, timestep = 100

4860 atoms
3 atom types

-18.641262324024485 18.641262324024485 xlo xhi
-18.96748521461177 18.96748521461177 ylo yhi
-18.70124992711957 18.70124992711957 zlo zhi

Masses

1 12
2 1.008
3 15.999

Atoms # charge

2492 2 0.10046364029971822 -12.935243461188422 -14.407772673280776 -14.163917365488347 0 1 0
2489 2 0.11861022662798323 -13.02381087441511 -14.320273554688356 -17.725711361853346 0 1 0
2475 1 0.03460738938676247 -12.658455718401845 -13.997802703910862 -16.736878699174873 0 1 0
2478 1 0.03127674248656902 -12.454042745743404 -15.207885021978777 -14.660525063484624 0 1 0
4278 2 0.04548592073725116 -15.889250250512612 -16.443735386206548 -17.028573678898617 0 1 1
3802 1 -0.023537976563620097 -16.649674952815527 -15.054981293086406 -13.673794179108985 1 0 0
4279 2 0.12592442366515685 -15.906348445634688 -14.709328824384404 -17.257506517021824 0 1 1
4258 1 -0.021345812199842502 -16.172492718533178 -15.643192743750896 -17.68330835708874 0 1 1
1147 2 0.037294924621969365 -17.78841850371243 -17.477678927844668 -16.00279354996937 0 1 0
3797 1 0.0948321465742472 -17.612250747392626 -15.571650912958194 -12.969137435553069 1 0 0
3806 2 0.1180049862986957 -15.728691833695388 -14.761673390389038 -14.25430904845507 1 0 0
2468 3 -0.5148345994644032 -14.784198305100615 -14.029637787674154 -15.732672629096621 0 1 0
2462 1 0.17530525458020896 -13.82960972876724 -13.355583928735845 -15.86967783759278 0 1 0
1116 1 -0.015651979036220502 -18.421986815733785 -18.18670187868999 -15.528722965738389 0 1 0
2479 1 0.18955913491465498 -12.15172339106285 -15.152666985235095 -15.978242944109052 0 1 0
2490 2 0.0924885144948332 -11.916659328202053 -13.330939958334428 -17.142567945688807 0 1 0
2480 3 -0.4951396644500016 -11.589763008878046 -16.10064595782083 -16.696482672145425 0 1 0
2477 1 -0.020404709315295037 -12.107760150015894 -16.36822784674208 -13.851326228122833 0 1 0
2491 2 0.08203667312538052 -12.128154925863589 -16.420781510989332 -12.754873913636521 0 1 0
2476 1 -0.007896494923754577 -11.658148959418712 -17.559261364278502 -14.379410030204697 0 1 0
4365 1 0.14725177968238315 -12.006866225861904 -16.81493744117645 -17.950444284458392 0 1 1
651 1 0.24209424354306835 -10.092680359163463 -13.24263369954697 -14.133059334995226 0 0 0
655 3 -0.4706209843266178 -11.101553282916043 -13.179731659482503 -12.91231881552537 0 0 0
678 2 0.04875318672023306 -9.813154926064268 -17.77404916512747 -13.110173141468607 0 0 0
2587 1 -0.007066363708496913 -11.206963348146283 -18.73571806402693 -14.944105529257241 0 1 0
679 2 0.05750731161427196 -9.737903555551396 -16.277179484540223 -12.827378569671337 0 0 0
2591 2 0.0771837572331195 -10.980693122739195 -18.72431220973009 -15.998442210977354 0 1 0
4390 2 0.09597387782390819 -11.810891354975537 -18.847815144050337 -18.583023329843048 0 1 1
3761 2 0.08848972400611976 -10.133681519131818 -15.313977606454639 -18.410178388454483 0 0 1
2467 3 -0.49840074815883995 -10.585266572043016 -12.699630091639168 -15.7274314720933 0 1 0
683 2 0.07753303778903536 -7.093316788129937 -14.77978647155818 -13.831792587203246 0 0 0
632 2 0.05798859096363261 -8.25540974872 -14.415473779419552 -16.233660804167314 0 0 0
610 1 -0.037119385076913654 -7.527394300266138 -13.88500307386178 -15.725658620933512 0 0 0
664 1 -0.031110479356032852 -7.237765405792719 -17.719459840075995 -13.457461462099912 0 0 0
611 1 0.06912447523730457 -7.371284465027711 -13.81234331171871 -14.22707413194626 0 0 0
652 1 0.014367472663951868 -8.73715819338305 -13.710673965076918 -13.522539732142434 0 0 0
782 1 0.12681785968825549 -6.555360294159329 -17.896479142372545 -16.883251449613695 0 0 0
688 2 0.05364946373721317 -7.757666558961688 -18.156841683483822 -14.308454452612827 0 0 0
796 2 0.026640757175364658 -6.556452797278721 -15.599923453390625 -17.236694953777 0 0 0
609 1 -0.03330975590541319 -6.670600212550139 -13.033480935792223 -16.284284928793387 0 0 0
783 1 -0.02371305166567282 -7.867628012443319 -17.99982652926378 -17.025277017388884 0 0 0
805 2 0.04505096557134057 -8.549301876078877 -17.270541870235878 -17.410794770184012 0 0 0
3760 2 0.053621005721340154 -9.271406301419619 -12.762103843015431 -18.532682362373468 0 0 1
631 2 0.05838094290971442 -6.474661634568123 -12.921831835969046 -17.371613834832864 0 0 0
790 2 0.04986173280824004 -5.300235516199355 -15.140806812828323 -15.55213992336721 0 0 0
755 1 -0.0502968224175868 -4.429747298312928 -15.623172619913127 -15.916008725170691 0 0 0
756 1 -0.03136613111515255 -4.53500008622894 -16.373411354066135 -17.051358668766863 0 0 0
761 1 -0.0035627196186191826 -3.4229550407249607 -16.971957940144957 -17.795677802031378 0 0 0
663 1 -0.02360668078338258 -5.8933495305924675 -17.350014368482135 -13.398491965961005 0 0 0
754 1 -0.02865768952624075 -3.2029223689147504 -15.54802962068764 -15.243502591680599 0 0 0
789 2 0.0644687324501578 -3.2044983726050265 -14.980339614808988 -14.372776404451987 0 0 0
753 1 0.09392526270572768 -2.075551406959467 -16.419930810392792 -15.646722045607403 0 0 0
760 1 0.021189258919342858 -1.978228171474247 -16.588389722700928 -17.178254928251445 0 0 0
791 2 0.06487768042802572 -1.6818050406212277 -15.644784803576071 -17.554257455039163 0 0 0
759 1 0.19045272000966745 -1.0876208478529565 -17.743567274020954 -17.53011580547438 0 0 0
764 1 -0.05707816780643583 -5.977447445040495 -16.548283988615783 -17.497576548444677 0 0 0
687 2 0.0836963845680888 -5.162357002619016 -17.53284758881236 -14.200023098720061 0 0 0
766 3 -0.45360067238103896 -2.1251984776785555 -17.849772198309978 -14.795263314047322 0 0 0
781 1 0.14855204608341666 -0.8767768794800005 -15.330612112843223 -13.597249584597652 0 0 0
763 1 0.006008374467498851 -0.8108837255705739 -15.747882463985029 -15.095515184832477 0 0 0
780 1 0.0001674879357644321 -1.1617641229634632 -16.302607912659646 -12.599833273353486 0 0 0
757 1 0.10858499555590456 -3.4691317075362615 -18.48229102307674 -17.758416032355903 0 0 0
804 2 0.13220532516570183 -1.3368571968985825 -17.38132997580402 -12.74274185960062 0 0 0
786 3 -0.47726070465290404 -5.803204163372574 -18.907872086508313 -16.319720982182982 0 0 0
777 3 -0.47837152189206344 -0.5675836617829162 -14.08806964888894 -13.309012720078906 0 0 0
758 3 -0.456196010937849 -1.8101322881942958 -18.83251926016889 -17.790407641856497 0 0 0
612 3 -0.4644913154927046 -6.1483057435880335 -12.661807996174387 -13.95060883099017 0 0 0
797 2 0.043069671642547096 -6.154853206349995 -16.49658754420606 -18.570631727686482 0 0 0
1588 1 0.1983523628691339 -2.5812777904670976 -18.74052275730267 -13.907865638438638 0 1 0
748 2 0.1670847418096491 -3.66830081990897 -18.845730910626656 -16.76782596858944 0 0 0
795 2 0.10880069855742536 -0.4463257234410436 -14.88190951877962 -15.675901796851939 0 0 0
794 2 0.085367502616999 -0.0029269297214381982 -16.46970524130021 -15.259573345296868 0 0 0
768 1 -0.03674574841961975 3.1631603118596066 -15.760210259111487 -16.95942414544676 0 0 0
799 2 0.057716054746413926 4.2316582107620055 -15.587726886130366 -16.8021083013164 0 0 0
767 1 0.09222493434884446 2.109592710080429 -14.878577752260284 -16.614301813680182 0 0 0
749 2 0.0434677149664109 4.587709108359126 -14.670769857295593 -14.589211648468341 0 0 0
769 1 -0.03341216371315071 2.5181090907842547 -16.804456884144898 -17.555410088036083 0 0 0
770 1 0.12794885265182931 1.0784715116968022 -16.568541569738915 -17.553100495690057 0 0 0
1315 1 -0.03618201222806662 2.9481425644491113 -16.144551846351895 -13.339919126652726 0 1 0
1313 3 -0.5589589831927362 5.641864669167982 -17.513094620770588 -13.361415055325393 0 1 0
1312 1 0.13987569258921878 4.601688944198748 -17.801931292824598 -14.155945107267351 0 1 0
1327 2 0.07021362680453777 1.9497716644762788 -15.801283620570258 -13.445584265453187 0 1 0
1316 1 -0.03384119613223802 3.3535159505896575 -17.22908952568715 -14.23629410342469 0 1 0
1328 2 0.04417271690540556 2.7359996179879347 -17.524968145132394 -15.090220119563243 0 1 0
726 1 0.008912299621123717 2.3464439405110213 -13.74387230262611 -15.747633995793704 0 0 0
771 3 -0.4891653703870356 0.6665997298559561 -15.302762275390105 -17.265092270005443 0 0 0
718 1 -0.000803988943150296 5.892864892573704 -13.864023504641601 -18.186837316410426 0 0 0
1317 1 0.014657604460053483 4.572272373679984 -18.777799051317142 -15.240190778509447 0 1 0
800 2 0.060482874199041844 3.063180607480677 -17.76534763363747 -17.75218593157701 0 0 0
729 1 -0.04866757900284083 4.489098628476437 -13.56801773954414 -14.538909764545666 0 0 0
727 1 0.08198645152121864 3.540985487191913 -13.059046534565974 -15.095523087725768 0 0 0
750 2 0.05194398133769909 5.326565168431332 -13.008086803844261 -14.094060897587179 0 0 0
788 1 0.01936009604844199 1.6165581557272597 -12.847010627290096 -16.56477875986363 0 0 0
1329 2 0.1366182113960046 5.490754698822437 -18.879142858463872 -15.748199497247748 0 1 0
762 1 0.014843486078584826 0.24047988574002283 -17.685130726893696 -17.79143279339124 0 0 0
793 2 0.07071674434749022 0.5808756098203508 -18.673129507524955 -17.970116698625763 0 0 0
2110 2 0.05751772980046671 7.9097938077882315 -16.01048351011249 -13.410321588494375 0 0 0
2167 3 -0.45082753373985446 6.556127233308293 -16.747310661132857 -18.40650259853922 1 -1 0
2109 2 0.07259805156398078 7.8268569971717366 -15.791682652580826 -16.10464679275044 0 0 0
744 2 0.045748524508714264 6.963967673195862 -13.523802873137658 -16.55312785614331 0 0 0
2098 1 -0.0354580287581954 8.601605016760612 -15.385721419050478 -13.983127206259406 0 0 0
2097 1 -0.038143466014494254 8.474638601337869 -15.29876964838015 -15.415122544265143 0 0 0
717 1 -0.03523257121674363 6.378570202686145 -12.966932138703234 -17.227225481944142 0 0 0
2085 2 0.09241968553866708 9.26993296879107 -17.773924317366465 -15.79721271626861 0 0 0
2084 2 0.0874231439561678 8.026999528388364 -18.021821552935556 -15.063075839038213 0 0 0
2070 1 0.05385670494067434 8.84156678234158 -18.719637418947272 -15.353484791694298 0 0 0
1354 2 0.07030856708199919 8.438199360745573 -12.650331705133057 -12.512885627387321 0 2 0
2080 2 0.07525802767564341 11.748160382578881 -16.042505657048643 -15.474716820408851 0 0 0
2095 3 -0.4806090023945122 10.452969258024382 -13.958877803660817 -14.50231604033864 0 0 0
2062 3 -0.48579908294770235 10.89458769508702 -18.651501374526937 -16.744091033029957 0 0 0
2058 1 -0.002049407581589356 10.872125744309514 -18.63903802783219 -13.703304294164257 0 0 0
2060 1 0.16389041399871915 11.769475435778457 -18.30996563261998 -16.056253899497534 0 0 0
2094 1 0.10279933938560908 9.629874146392158 -14.584180676025342 -13.500842864365879 0 0 0
2076 2 0.10041239470654052 11.01105265263278 -18.593939418547826 -12.610307768013156 0 0 0
2096 1 0.10392804735744073 9.546919831237538 -14.418277680874212 -15.737896191988742 0 0 0
2059 1 -0.0254979270431009 11.73992633291762 -18.224508972592453 -14.586146155289978 0 0 0
2064 1 0.12877225435816447 13.757121755012625 -16.673900634293393 -16.0767145577659 0 0 0
2061 1 -0.020037686300302122 13.218153284569333 -18.01416648835606 -16.662305289936075 0 0 0
2068 3 -0.4913073261843807 15.04657158024779 -16.268731696155452 -16.15146940821483 0 0 0
2065 1 -0.009880268577849693 12.779656957539888 -15.84150759649137 -15.526183427089945 0 0 0
2066 1 -0.01922667179143699 13.445214113239093 -14.780848698210201 -15.03436771331691 0 0 0
2067 1 0.08792723466552274 14.8727158264738 -14.875818678042322 -15.36410459564237 0 0 0
1146 2 0.09883898490469667 16.82887920094916 -17.176991674196014 -15.778016573714055 -1 1 0
2083 2 0.06785080001753138 16.815680680578595 -14.326677862080526 -15.446014751299638 0 0 0
2069 1 -0.04771550769853356 15.817169531758385 -14.008017254275423 -15.129658914090806 0 0 0
2081 2 0.06251713007663409 13.053652377579022 -13.959101930021003 -14.483027645426485 0 0 0
3633 2 0.07309279591537687 17.161515099878656 -15.503922024930048 -17.88940363839972 -1 0 1
1115 1 -0.016718783137094972 17.464654757665972 -17.969255029296114 -15.399426733098585 -1 1 0
3599 1 0.0017303176817667562 13.80609328154633 -13.682807413503156 -18.622054269251997 -1 0 1
3632 2 0.09248171416187259 13.662379949503634 -12.888014212524086 -17.845310018142623 -1 0 1
2079 2 0.05369132910790871 13.25359734091473 -18.084281385923806 -17.76573598894848 0 0 0
2078 2 0.07011283757196214 13.859964928842885 -18.930918914453184 -16.589417044428377 0 0 0
2077 2 0.0542254307435901 12.677771604272182 -17.803237782537167 -14.273586354348778 0 0 0
3636 2 0.08457361108951424 16.1035620198927 -17.664189653536905 -18.016099003576457 -1 0 1
1156 2 0.06736047577562235 15.225328202158417 -18.32589744766401 -14.730711061029933 -1 1 0
3631 2 0.06620946565555465 14.46162456757255 -14.334548793400668 -18.10162583989207 -1 0 1
2082 2 0.03366645678661109 15.671177250503552 -13.046148868222325 -14.683757136911503 0 0 0
3593 3 -0.4813704698678901 17.630593350914623 -12.837589809383424 -18.2930486471532 -1 0 1
3801 1 -0.030500038790456735 18.57907221977926 -14.696058095425487 -12.989418898903445 0 0 0
3805 2 0.05376444036919377 18.536574858250567 -13.74814478082571 -13.45290888324131 0 0 0
3600 1 0.020228068657837724 16.64768418251713 -15.017571028278649 -18.686747519497143 -1 0 1
171 2 0.06502173758617386 -15.126988742449209 -12.107520363537162 -17.704527268779305 1 1 0
2463 1 -0.02031993179561997 -13.702131899179392 -11.929253591633568 -15.703499120580373 0 1 0
2481 2 0.05296650364515639 -14.598033689215725 -11.406490710158222 -15.51966763450412 0 1 0
2464 1 -0.01979165050818722 -12.520594145680384 -11.233561240453463 -15.661837772452461 0 1 0
3315 1 0.10474189755918419 -12.886501409720209 -7.701752644153609 -14.656286655206955 0 0 1
2482 2 0.0708052297482503 -12.572613534963027 -10.137705525857328 -15.576190836837476 0 1 0
3318 1 0.1002526176778316 -12.512305221827635 -9.223977674091051 -13.193427810721602 0 0 1
3316 1 -0.05190099084398973 -14.172017183537061 -7.823207165539833 -14.101357041812925 0 0 1
3317 1 -0.04338392798971137 -13.935870804442489 -8.873950111243824 -13.157929483418224 0 0 1
172 2 0.04450669008940444 -14.363885481632536 -9.0908503746631 -16.846136568154517 1 1 0
168 1 -0.042620342766763436 -14.28060636278394 -9.774216836181706 -17.619622547533076 1 1 0
268 2 0.04862755218653443 -17.332210147008013 -7.566267303699573 -13.720597225889765 0 0 0
3327 2 0.06360573972264165 -15.099546000168548 -7.33069145318722 -14.311388469241342 0 0 1
3308 1 -0.005074900630471935 -13.078814524036888 -6.859717398794521 -15.752969820446149 0 0 1
233 1 -0.029971379163951026 -18.272336007722643 -7.023352591800031 -13.487930318514046 0 0 0
3323 2 0.10237596711108884 -14.169128893520648 -6.469385269232755 -15.806529686982843 0 0 1
3628 2 0.06826684460000336 -17.77347789713456 -11.044337035005102 -18.320957771370743 0 0 1
167 1 -0.03453439612730054 -14.532684626500018 -11.737616370521502 -18.56425295922108 1 1 0
163 1 0.08504745712135518 -13.990437716102104 -10.405375532274824 -18.689624569359527 1 1 0
2469 1 0.1567544341698806 -9.63917474778515 -10.060485728576129 -17.05255716635249 0 1 0
2466 1 0.024719534450851822 -10.086129739644385 -10.489597288516565 -15.712280546047248 0 1 0
2483 2 0.11416935417563326 -10.443590146871282 -9.602741285233808 -15.094507799262532 0 1 0
2465 1 0.16930845761625987 -11.14173763517001 -11.597473477877362 -15.730121358204256 0 1 0
3319 3 -0.48556070352696445 -11.681406364682074 -8.462992268505527 -14.172532546729075 0 0 1
2485 2 0.06367232687631903 -11.22482222231081 -11.007929376930838 -18.259107100303922 0 1 0
2470 1 -0.011514796104581355 -10.31601296930079 -10.476524556623737 -18.234893566781395 0 1 0
3322 2 0.11832186378887677 -10.415344638565097 -7.392112394775608 -15.597669476880702 0 0 1
3307 1 -0.001477096589811093 -10.731451748803503 -6.751383209035577 -16.420835872348764 0 0 1
3303 1 0.10932404235599794 -12.04371423161489 -6.40630746001992 -16.623114782214916 0 0 1
616 2 0.09477202174804004 -6.71073694108588 -10.523571389118242 -15.941955104423357 0 0 0
615 2 0.06989020826936523 -6.711527896226486 -8.0193045914831 -15.177618235610554 0 0 0
2473 3 -0.4775180713659225 -8.580329829388766 -9.334412523289737 -17.062600246512236 0 1 0
2484 2 0.09404866890061031 -9.229758835182077 -10.872007704887343 -15.100080643981283 0 1 0
608 1 0.1441050732456158 -5.8760425415630335 -12.536187240071508 -15.21853383108326 0 0 0
623 2 0.061928389640792635 -3.7214959375880214 -12.597540750492206 -15.33047981020971 0 0 0
619 2 0.07125455088998772 -0.5127403286053597 -6.787100340360857 -16.66824879423303 0 0 0
622 2 0.09501217883837768 -4.369511518034521 -12.457255355849545 -16.866395119942574 0 0 0
521 2 0.09267430174118696 -4.61426148498536 -11.73191846034163 -12.468781341953715 0 0 0
590 1 -0.017304983800181587 -4.511364726406693 -12.082142193493393 -15.81774724903948 0 0 0
617 2 0.033493173054132463 -4.2460108003787465 -7.552483309160738 -17.34775247884241 0 0 0
509 1 -0.005677675356793643 -2.4105030060674184 -11.29886150547331 -12.804088273417186 0 0 0
520 2 0.1319708658556356 -2.432771171341186 -10.630777130756975 -13.719995382451462 0 0 0
586 1 -0.00011585060843604528 -3.694335253547574 -8.281060746888059 -16.709264268332255 0 0 0
582 1 0.12572995823831912 -4.447865754088258 -10.455292125231795 -15.852785361082883 0 0 0
581 1 0.003999989285627472 -5.88239250766717 -9.881059262457777 -15.803287121088982 0 0 0
580 1 -0.023826462083757674 -5.8740266443326945 -8.643910816205304 -15.40297402139659 0 0 0
592 3 -0.4672569361667093 -3.6947171553401335 -9.835446289458137 -14.793499555629605 0 0 0
579 1 0.07615472094851661 -4.419377679448822 -8.3923037158507 -15.247548706467443 0 0 0
606 1 -0.00714773010985497 -4.543375215536014 -8.488704503981737 -12.564609537023758 0 0 0
630 2 0.09445258099881766 -5.011808747577533 -9.180608488806934 -13.227551752695918 0 0 0
585 1 0.10431874831403214 -2.1617993233720068 -7.968923760166587 -16.708011140629456 0 0 0
584 3 -0.47025444201866906 -1.4749226367229935 -9.462604007147204 -16.796135221361585 0 0 0
583 1 0.16334600058458132 -2.3533149879096196 -10.363212828330683 -17.229125812613585 0 0 0
587 1 0.03515288857541131 -3.7057675091670474 -9.852617880373643 -17.065733789503255 0 0 0
589 1 -0.014785095067169886 -4.142696314611315 -7.044479325180132 -14.468611617162628 0 0 0
588 1 0.0029367684599539354 -1.5550196199516702 -6.924717009652796 -16.807321909398123 0 0 0
607 1 0.1567191229551047 -3.9642910997834457 -7.292247538891953 -12.919932094729141 0 0 0
618 2 0.0671491441621895 -4.302108373242418 -10.110949037692334 -17.93162194653984 0 0 0
591 1 -0.0056594151597603795 -1.9901297266370765 -11.57705486308368 -17.816446395704844 0 0 0
624 2 0.05050727431245591 -0.9257300079600956 -11.867796013471951 -17.76113855134713 0 0 0
516 2 0.0687724436061053 -0.3189188471224416 -10.452912675707031 -13.524819284300044 0 0 0
620 2 0.11657085000493853 -3.3193076262120966 -6.525572517126729 -14.927369515965538 0 0 0
501 1 0.017364023962569274 -0.24297323855173883 -11.139331365869173 -12.678972477219629 0 0 0
599 1 0.13399934888459095 -2.8319417938932783 -12.47948328500613 -18.545244245285794 0 0 0
621 2 0.047255207235455864 -5.028107791742478 -6.388289725454551 -14.63823307354747 0 0 0
747 2 0.09630578498475013 0.4765746058256556 -12.367205467717014 -14.742947320352581 0 0 0
739 2 0.08097000942026888 2.209160841889847 -10.474176254631999 -18.27815563468623 0 0 0
725 1 -0.01607016026279516 0.8103048454713971 -12.237300384819969 -15.740332580809856 0 0 0
738 2 0.07872840444830405 0.5559627107105201 -10.402188318922931 -17.725075644740038 0 0 0
716 1 -0.0074180341256240775 5.971370943022516 -11.57176924451992 -17.01189736653296 0 0 0
740 2 0.06699220184268562 5.268726984444824 -9.3143408715087 -16.500243642483273 0 0 0
724 1 0.07880686803595961 1.9299225510755744 -11.417116750334243 -16.288930143923846 0 0 0
728 3 -0.5390925693212224 3.409691524470618 -11.42554556905656 -15.245109578745438 0 0 0
810 2 0.33766232038369465 2.941348901891648 -11.272681488328006 -14.282015064165291 0 0 0
706 1 -0.026835946292397352 1.6129670332599624 -10.344496790534555 -17.369715471186158 0 0 0
698 1 -0.010993734848664158 1.9306461680473532 -8.87014758022441 -16.92663120615376 0 0 0
497 3 -0.4954415842810699 2.283483664436009 -10.724360769315762 -12.858585805359724 0 0 0
519 2 0.0908377327709561 4.97779799203631 -10.967945095909288 -13.136290466502974 0 0 0
697 1 -0.024991883934737814 1.2282273628302387 -8.220208396354632 -15.842689506984135 0 0 0
703 1 0.01771610323249847 2.957760032015087 -8.168563706359855 -17.489123129745963 0 0 0
707 1 0.00281754832626583 4.985374985110669 -9.651752206027183 -17.473765934006583 0 0 0
715 1 0.14028971493032366 5.279842943978909 -10.847478904444372 -17.97389601892941 0 0 0
732 2 0.10171131182870671 0.38178488772566344 -8.806314033168885 -15.500691273828618 0 0 0
696 1 -0.023506142320510664 1.784496775316002 -7.142243485603028 -15.242173510579185 0 0 0
699 1 0.08455564919496404 4.102151217867022 -8.659745608476848 -18.238963019649766 0 0 0
702 1 0.02898659670699434 2.882121881190918 -6.742075706521725 -17.409783907050915 0 0 0
809 2 0.3130160651441931 4.767672958960093 -6.901100562553219 -16.262318279061567 0 0 0
731 2 0.05396738508295883 1.4090511978207874 -6.6997762754039485 -14.303485728331475 0 0 0
708 3 -0.5838674088161602 4.281781261445563 -6.7773024789217216 -15.431137500884104 0 0 0
746 2 0.12908081361034346 3.7457143675030125 -6.376105314873469 -13.654051981600748 0 0 0
700 3 -0.4891190149974902 4.778615572317487 -7.058974223833459 -18.58337568398748 0 0 0
695 1 0.12008741780145002 2.9961171817142964 -6.396572431057616 -15.829326644947491 0 0 0
733 2 0.09156881738772915 1.906588049486983 -6.47326537798839 -17.749825114417646 0 0 0
1238 2 0.11269089433778855 9.030059224183876 -6.803578476103325 -18.44120151625239 0 0 0
1237 2 0.07716212421243186 7.325737713541494 -7.4559395971898335 -18.288691836976064 0 0 0
743 2 0.05029264471054908 6.300876789415732 -11.141104734092313 -16.09733066758255 0 0 0
1235 2 0.10713163259624506 6.871995503301511 -8.071202979888778 -13.475605575037001 0 0 0
1236 2 0.045846222484472246 7.531904280873566 -8.787360755719643 -15.74821884541019 0 0 0
1218 1 -0.0023283418751990498 7.6467563713008175 -7.764238199822264 -15.409056259243657 0 0 0
1223 1 0.12962336202248323 9.044069628594414 -8.739045083533133 -17.85552612304864 0 0 0
1217 1 0.040592033108430375 7.286544425880127 -7.3759540180931324 -14.2069097753786 0 0 0
1220 1 0.0020221518581798777 8.371767723176404 -7.361701314600673 -17.850920582006363 0 0 0
1345 1 0.1535368760240923 8.983571865318648 -10.585590446146574 -12.59985836198167 0 2 0
1225 1 0.0018160971443634058 9.046457559059174 -10.895442106919406 -18.264649479433867 0 0 0
1224 1 -0.008303577502611043 8.353590180194391 -9.733040158108032 -18.550380639494097 0 0 0
1219 1 0.20016810840706306 8.107629733775983 -6.747790571598074 -16.346932380921793 0 0 0
1240 2 0.08216034336295401 8.77019033244614 -11.85747209492361 -18.66523624586611 0 0 0
1227 3 -0.4792366790941751 10.156667294634532 -9.01749835808888 -17.097482000324913 0 0 0
1349 1 -0.04305216266119441 10.023847337475171 -11.09929749789436 -13.331035529275171 0 2 0
1347 1 0.14698263701066888 10.171172191664699 -8.868428909607752 -12.959421553999356 0 2 0
1228 1 -0.023949706470973955 11.009566876224667 -11.456254694983256 -16.985806750862356 0 0 0
1348 1 -0.04889509679293662 10.851850643745442 -9.982670679034229 -13.628971848200225 0 2 0
1352 2 0.03025667057164711 11.737495452148156 -9.890430752649173 -14.155208795327033 0 2 0
1242 2 0.0562456977784653 11.783586498202181 -11.113637399949356 -16.285793215309553 0 0 0
3638 2 0.11345414436977765 11.99477665734926 -8.376978799634113 -16.73581052624602 -1 0 1
1353 2 0.08632571394879476 10.265172535525682 -12.174364661719467 -13.633148340877163 0 2 0
1351 1 0.151107660192961 10.851113951108738 -7.844863083345189 -13.133745292964022 0 2 0
1355 2 0.09041710692456809 11.820591752347122 -7.846406475835675 -13.634841065306865 0 2 0
1241 2 0.1163576759401935 10.914307983186537 -12.465128736804006 -17.37158690283173 0 0 0
1226 1 0.09729048941057594 10.135137780373828 -10.591286921738812 -17.340724345350694 0 0 0
1234 3 -0.4968893556495617 10.665827933104854 -6.561376968403469 -12.57005525850892 0 0 0
3616 1 0.20650498453943783 15.057963833055851 -8.30864314788286 -18.381624548306977 -1 0 1
3583 2 0.30088425044512407 15.717203391605679 -11.72899737706851 -17.74000360126065 -1 0 1
3612 3 -0.4298424234113127 15.647865514539887 -7.362597887278569 -17.961324505833243 -1 0 1
3601 3 -0.5809396699377153 15.043897497142355 -11.076824839567552 -17.998783468040177 -1 0 1
276 2 0.10764538381122121 14.81752415965092 -7.2443353136420745 -13.271732964713518 -1 0 0
275 2 0.08478425636770627 15.48407034716621 -7.309286594941524 -14.861934464374288 -1 0 0
3614 1 -0.0007136707939155128 13.002447136310881 -8.023355674135752 -17.044725469757743 -1 0 1
3613 1 0.19965099021344307 13.356180926691863 -6.853593395517426 -16.326302391600763 -1 0 1
243 1 0.007735709098165577 15.33866056630319 -6.616468674188495 -14.034383121265172 -1 0 0
269 2 0.057950391304473846 17.47546840976977 -8.335049249313002 -14.044997961961085 -1 0 0
3615 1 0.022749861683399986 13.737490780839689 -8.686429098829594 -18.035754029434123 -1 0 1
234 1 -0.009671020277310857 17.802999794430782 -7.378743196852627 -13.737230259731195 -1 0 0
3639 2 0.09441576593982835 13.420119782155387 -9.558575001485814 -18.56121415300305 -1 0 1
198 3 -0.486764801875583 -15.553464622613816 -0.7266638054553057 -15.151896178689233 0 0 0
258 1 0.017927306229543347 -17.00846573734472 -3.60108061598618 -16.629737155051494 0 0 0
287 2 0.08716137090736506 -14.828325960291957 -5.806382270650161 -18.079111941692894 0 0 0
208 1 -0.035487667510155876 -17.602404793524613 -0.43302873697887356 -13.721156357486278 0 0 0
199 1 0.07886514309232595 -16.476295071138313 -0.8737912087707741 -13.700815414597718 0 0 0
200 1 -0.024491604682341205 -15.59539535109791 -1.5269601187499307 -12.765924513040703 0 0 0
211 2 0.04744968496396777 -12.77269712239285 -5.446087553788127 -13.672505976736783 0 0 0
3354 2 0.06781811949181706 -18.604555723463996 -0.44446039819208716 -17.072329593681882 0 0 1
216 2 0.08782523278309794 -13.33979211925326 -1.4490628168907067 -16.471570770161694 0 0 0
232 1 0.07186388595395578 -18.48567341123448 -5.603764459033923 -13.098698572212106 0 0 0
175 1 -0.03005416551999819 -12.955235819632064 -3.8364678319700314 -15.029993596889206 0 0 0
201 1 -0.011100827370564541 -14.34158129705706 -1.7371279022940007 -13.329537929402978 0 0 0
202 1 0.15102262970594094 -14.437653293500254 -1.2727768100266657 -14.608282007431368 0 0 0
215 2 0.11793493841951437 -12.576656376761 -0.34687649106645213 -15.408474437277906 0 0 0
257 1 0.1204873045415841 -16.068083512863293 -4.706156861864007 -16.80875329979811 0 0 0
283 2 0.06591813270972037 -18.05883362588664 -2.8465053820571042 -14.796199918081973 0 0 0
3338 3 -0.5675330363183525 -16.083259075106934 -1.2093759836701252 -17.80751508007471 0 0 1
225 2 0.1156050066737439 -13.448655028862424 -2.119906390504136 -12.907781457083063 0 0 0
210 2 0.0889477667832892 -13.760629000661108 -4.129203551784302 -15.659504944428043 0 0 0
3337 1 0.1451240733618936 -16.842943231766938 -0.23621971775785247 -18.382542548224933 0 0 1
3342 1 -0.003301757774925765 -18.259709552765667 -0.15868040083140889 -18.06473470897987 0 0 1
260 1 0.15635436607673692 -16.76186919332538 -4.600978309178322 -14.721249457036052 0 0 0
184 1 0.0018617010265303928 -13.109164812730713 -1.3358268326600025 -15.400189268331893 0 0 0
259 1 0.014511650465617457 -17.399295905367513 -3.566940118162979 -15.296864545382645 0 0 0
273 2 0.03454900034694777 -17.103479730408075 -3.899261291111626 -12.59095258003876 0 0 0
3645 2 0.35259916357154675 -15.85126258077483 -0.9211308024314484 -16.862015544471912 0 0 1
266 1 -0.026403773650173636 -15.564004910711798 -5.007534310009357 -17.965114407962393 0 0 0
282 2 0.0955411626036801 -17.45562902633841 -2.9570535592482172 -17.43203618228875 0 0 0
242 1 -0.03772397427841413 -17.119011485508466 -4.841370811147245 -13.210693328084107 0 0 0
176 1 -0.025554253129283683 -12.446740626575602 -4.478085416797512 -14.01969184337085 0 0 0
256 3 -0.49187994918796674 -15.865104495457823 -5.358911989117337 -15.429706539881682 0 0 0
228 2 0.04289973311484067 -18.24541841274687 -0.43818494329074875 -12.852742066953597 0 0 0
274 2 0.04348104012371741 -16.259203276925206 -5.363748569175284 -12.778360940415984 0 0 0
3306 1 -0.02352343144318865 -10.033110558791378 -6.132223513450664 -17.42721854809834 0 0 1
217 2 0.09983273767262825 -10.647566389371836 -5.645967740942347 -12.60909704940132 0 0 0
187 3 -0.5182254697102743 -11.590486442990857 -2.389097148846771 -13.218715647027244 0 0 0
3304 3 -0.4671121104616532 -12.327638674647197 -5.648618479749824 -17.997799724932445 0 0 1
213 2 0.07010663077823061 -10.095641366846966 -4.667879986760684 -14.714310797976804 0 0 0
180 1 0.11317475496773471 -9.957244147218827 -1.5263334581992893 -15.566993535139392 0 0 0
221 2 0.03222734109948485 -10.273031488447101 -2.2538511915983905 -17.78005725811521 0 0 0
191 1 0.1354009622664648 -11.1456480481901 -0.4863726741307311 -17.0536086826236 0 0 0
183 1 0.025446386252344085 -10.031285182015186 -0.4548857774225702 -16.148399592973554 0 0 0
181 1 -0.004367165824311979 -10.862455323700768 -2.788431279564259 -15.553086001315455 0 0 0
3305 1 0.14178464515422398 -11.018633362983833 -5.542850622976502 -18.325013818686543 0 0 1
174 1 0.06102177814010346 -12.223619562849553 -2.55459658969439 -14.911109274015587 0 0 0
212 2 0.03932160001427853 -10.90211798275695 -3.3719404966421447 -16.448596849193578 0 0 0
177 1 0.1378188108941715 -11.250883346201025 -3.7407957301187293 -13.326155025939762 0 0 0
190 1 -0.022438079238462298 -11.121575809031413 -1.574259541538427 -17.89824827549309 0 0 0
182 1 0.037361023300621535 -10.181128098156227 -3.6191122603388903 -14.415970651081395 0 0 0
193 3 -0.4857472739904112 -8.968018315647276 -5.973747703957825 -13.32797449210564 0 0 0