LAMMPS data file via write_data, version 29 Oct 2020, timestep = 100

4860 atoms
3 atom types

-18.64850557313696 18.64850557313696 xlo xhi
-18.80024435511966 18.80024435511966 ylo yhi
-18.846572969509314 18.846572969509314 zlo zhi

Masses

1 12
2 1.008
3 15.999

Atoms # charge

4278 2 0.03711300387361584 -15.33718772056241 -16.580179933362654 -17.11311490008861 0 1 1
3802 1 -0.02634804957788356 -15.907129261385922 -14.67819991880605 -13.90440751958391 1 0 0
3806 2 0.11118247510471353 -15.221017451892319 -14.122559646580633 -14.505586748729463 1 0 0
2468 3 -0.5091148481093334 -14.387752067056148 -13.374149424902562 -16.107698166806763 0 1 0
2462 1 0.17315984435934303 -13.321230206058253 -12.872512103483329 -16.1505080888568 0 1 0
1147 2 0.05515337466380603 -17.556736020156535 -17.1970731735088 -16.474130039512648 0 1 0
3797 1 0.09149519794675154 -16.79656713949609 -15.194948292708222 -13.147724159284707 1 0 0
4279 2 0.12473437109209716 -15.199647075176852 -14.743438912430612 -17.321963727369894 0 1 1
4258 1 -0.0216059941628333 -15.514747348673115 -15.705964788573604 -17.73143434223343 0 1 1
1116 1 0.006080539344920484 -18.256274966830535 -17.885813242001383 -16.026617892209295 0 1 0
2492 2 0.09843807551988061 -12.816672830779819 -14.224409965003208 -14.473863509212782 0 1 0
2489 2 0.08628830137263649 -12.703063433975597 -14.007990698765267 -17.89208443447204 0 1 0
2491 2 0.07027905217170459 -12.766751816120976 -16.53565875847866 -13.14024015073073 0 1 0
3801 1 -0.03310003019173447 -17.743453784327652 -14.110781127904009 -12.851758579803477 1 0 0
4274 2 0.04689575275058683 -15.902954390037445 -18.11688742829719 -18.62416118609934 0 1 1
3805 2 0.05701916329721092 -17.776299634671062 -13.050047495783057 -13.104363452497179 1 0 0
1141 2 0.12727445043694535 -16.971155609721027 -18.69545457220187 -12.749517085895405 0 1 0
1140 2 0.060865947323002684 -15.841614516479474 -18.571697836364283 -15.733054572603208 0 1 0
2478 1 0.02112650233759554 -12.385931777743256 -15.12492221845937 -14.890328071970105 0 1 0
2475 1 0.03045255554228684 -12.293148613326661 -13.840057187299223 -16.88513467770914 0 1 0
3761 2 0.08963534998455173 -9.56290420620385 -14.549178871133119 -17.83506964085308 0 0 1
2479 1 0.17290107374597377 -11.968312595131458 -15.06335925223771 -16.14228366319866 0 1 0
2477 1 -0.01922448642673921 -12.292540096835905 -16.35149585743742 -14.10076596447447 0 1 0
4365 1 0.16661543497065257 -11.73754880268684 -16.54500762934191 -18.205999673045863 0 1 1
2480 3 -0.4948266796124729 -11.3322736256024 -16.020880958177102 -16.87678269563271 0 1 0
2476 1 -0.0022794695948811505 -11.652830500960214 -17.489324022467766 -14.559338722239122 0 1 0
2490 2 0.10142318113299684 -11.387129294654851 -13.25176003490214 -17.19405324334784 0 1 0
651 1 0.22038612963359056 -9.810351408909039 -13.489051609625154 -14.252336565795934 0 0 0
2467 3 -0.5006562606978242 -10.079924015267311 -12.791041996311804 -15.845991720996091 0 1 0
632 2 0.060276339410767765 -8.118028063469865 -14.493522103405565 -16.18146972923072 0 0 0
610 1 -0.0255405701224215 -7.378453117483968 -13.905741367152507 -15.68508469149255 0 0 0
611 1 0.06706516175813974 -7.108954666069055 -13.718007876245546 -14.20352153804448 0 0 0
652 1 0.001689680559074435 -8.452486500747703 -13.728015177134274 -13.49967509950923 0 0 0
783 1 -0.025924695272781212 -7.795392740667012 -17.770756446443148 -17.39025141373037 0 0 0
805 2 0.04175952221080007 -8.300046498597156 -16.992380173182255 -17.92584579907193 0 0 0
609 1 -0.036738351389381634 -6.477491362753495 -13.247337768382238 -16.422923008824938 0 0 0
688 2 0.054229158279881604 -7.844880549180894 -17.42297252317186 -14.661978804130673 0 0 0
664 1 -0.030949714999947874 -7.235981577068678 -17.128600017183132 -13.822021401806975 0 0 0
683 2 0.09063652441056963 -6.502890959560448 -14.493223780396864 -13.68018432875219 0 0 0
678 2 0.05010220279643285 -9.553448080377839 -17.8227540531662 -13.002146916658537 0 0 0
655 3 -0.47252404837321865 -10.888753351812081 -13.188464385410068 -13.024045656438226 0 0 0
796 2 0.02443230823293516 -6.5792723958519055 -15.528632634121664 -17.161558342944428 0 0 0
782 1 0.12587675205584253 -6.498829150393595 -17.645572767811757 -16.92140588557661 0 0 0
4390 2 0.06774405876527834 -11.311340719881215 -18.7025549238797 -18.71873033468647 0 1 1
2587 1 -0.004769898778445497 -10.964948328118236 -18.57576434171264 -15.041976572500861 0 1 0
2591 2 0.08420052611016889 -10.600992783631751 -18.341092980171673 -16.04098996004557 0 1 0
631 2 0.036897919615143285 -6.3613664278175595 -13.254093239709377 -17.48309734821407 0 0 0
679 2 0.06257729158068386 -9.706726601290589 -16.12720673180811 -12.969934134906115 0 0 0
665 1 0.11243150360986852 -7.70340995463145 -16.796130790351235 -12.593756569888505 0 0 0
3750 1 -0.03404523303831702 -8.94101971754063 -14.158033300577724 -18.591676436208537 0 0 1
3749 1 -0.029086084355876556 -8.302054739012181 -12.937163348053266 -18.693438669347504 0 0 1
758 3 -0.45569809455675225 -1.7960056789051144 -18.457262264417203 -18.38565822803339 0 0 0
612 3 -0.4731846812913622 -5.8665333845526 -12.58779744242766 -14.226754077019176 0 0 0
663 1 -0.021212068703176035 -5.865826568492029 -17.09010159347899 -13.69937790928737 0 0 0
777 3 -0.47555157022823635 -0.8566437085429293 -14.182874830460538 -13.883137613812107 0 0 0
608 1 0.13607546749934674 -5.567070462747568 -12.637267208275677 -15.531716265953872 0 0 0
781 1 0.16771360369783644 -0.7912867822371581 -15.357681421418729 -13.843736012615295 0 0 0
764 1 -0.06200442742914475 -5.859305577192613 -16.31760328990712 -17.44666804451613 0 0 0
757 1 0.12461865632966063 -3.328522491770695 -18.16716478883266 -17.926561857990755 0 0 0
790 2 0.05718691847528966 -5.19252153459451 -14.789238536607456 -15.383618421261477 0 0 0
755 1 -0.05321117814976174 -4.343782075535287 -15.341408232296121 -15.844734931590734 0 0 0
756 1 -0.03424529228367176 -4.422378071189707 -16.150519851294952 -16.9655590356838 0 0 0
761 1 -0.006694221067304515 -3.3299862644782205 -16.680061026856862 -17.86644095412174 0 0 0
754 1 -0.019626109277407967 -3.0895970173178107 -15.416553245184197 -15.406670532276195 0 0 0
789 2 0.09592173053199957 -2.9251510811699806 -14.839987702603116 -14.465088434104032 0 0 0
753 1 0.09095141808368533 -1.9982245949779092 -16.31759730894187 -15.842757669491839 0 0 0
760 1 0.011107017255418895 -1.8797819126444715 -16.283603168093975 -17.385737318184468 0 0 0
791 2 0.07246444687908997 -1.4579197646336368 -15.418068486908222 -17.878380632241605 0 0 0
759 1 0.19326189825771023 -1.085145770650115 -17.467723695569862 -17.89968472954292 0 0 0
763 1 0.014050479264208292 -0.715045107254177 -15.975586740532862 -15.289490828819076 0 0 0
687 2 0.09524777615347482 -5.1739349780649775 -17.35180723924094 -14.499852984739292 0 0 0
766 3 -0.45550508603091006 -2.073450457981231 -17.923054203583515 -15.299194144820019 0 0 0
797 2 0.03645230631712011 -5.7980990252709255 -16.166806413083727 -18.563357209208373 0 0 0
804 2 0.1244263905888123 -0.5482764381689087 -17.24267012205351 -12.880975591993542 0 0 0
780 1 -0.015625223436209125 -0.6860992244799355 -16.202266178909603 -12.661674314452407 0 0 0
1588 1 0.20752014966267196 -2.6361245028864815 -18.761845525159174 -14.418849244526772 0 1 0
795 2 0.12213225909586464 -0.10394012337222946 -15.205374088165112 -15.858533234118628 0 0 0
786 3 -0.4779643671365444 -5.947327908184253 -18.627552402669934 -16.172734518713447 0 0 0
794 2 0.07316751136857065 -0.02353633912679598 -16.816527392239138 -15.365595176106353 0 0 0
748 2 0.15747311050302315 -3.4899712864336063 -18.643554977043657 -16.95563445028182 0 0 0
768 1 -0.03753426564387633 3.2245927224720567 -15.477400124597043 -16.953923609262198 0 0 0
799 2 0.05523372905914983 4.254674156422503 -15.377011280737987 -16.610993493032527 0 0 0
767 1 0.0810114922577651 2.2334462721706103 -14.551406810664432 -16.79516277139516 0 0 0
749 2 0.050639052842846574 4.622906497136139 -14.44168013527361 -14.712801866979481 0 0 0
769 1 -0.02238867556195628 2.6007931645866265 -16.573815866837723 -17.596561189221713 0 0 0
770 1 0.1259107423640017 1.1791392049578597 -16.35022679069433 -17.770642281610993 0 0 0
1312 1 0.15033779301292394 4.266150257711537 -16.89816780691367 -13.833541362011939 0 1 0
1316 1 -0.0316461253831977 2.9872410315419877 -16.340663059673417 -13.607308922770812 0 1 0
1328 2 0.036153449837937134 2.1182357631606124 -16.623684947622273 -14.198544061941353 0 1 0
726 1 0.010267380604895444 2.4104278142617233 -13.419375945129413 -15.919488328332687 0 0 0
729 1 -0.04701272520103586 4.4837605097004065 -13.300443654144631 -14.695622769159408 0 0 0
727 1 0.09735191625516053 3.5341402603809335 -12.717487411776798 -15.167910949171699 0 0 0
750 2 0.04870080789494317 5.3071384894447 -12.669967245289705 -14.288187340912321 0 0 0
788 1 0.014899026382385147 1.5888042015308024 -12.55892286148558 -16.6813772673449 0 0 0
771 3 -0.4974131597563702 0.7990781941038598 -15.099629506709704 -17.527179738555205 0 0 0
1317 1 0.02757799740880061 4.25840346877191 -17.84437125373098 -14.948846389048141 0 1 0
762 1 0.017307541205320964 0.3007547389053826 -17.417636482643296 -18.000866696433185 0 0 0
1329 2 0.13995950554321712 5.1372917946957095 -17.87667365296467 -15.615963940982269 0 1 0
800 2 0.08022271773096011 3.0780888610859307 -17.49334448788435 -17.901985731007294 0 0 0
1324 2 0.07436073089054411 2.0000498183904654 -18.64620823035667 -13.327931214479838 0 1 0
1313 3 -0.5339630434275255 5.377529717827851 -16.70474342255916 -13.2146254176585 0 1 0
2168 1 0.12780780812137854 6.0997583810407825 -15.905065482049391 -18.37736242472927 1 -1 0
2172 1 -0.01503289789094361 6.044431378208717 -14.43393159036891 -18.453854183277002 1 -1 0
2166 1 0.12314375349143773 6.152343349147401 -18.12981868693813 -17.8062220168853 1 -1 0
793 2 0.06325461517409073 0.7279923935873533 -18.350120710016256 -18.472749572919895 0 0 0
1315 1 -0.0284856021201234 2.680532084993647 -15.371009952219708 -12.61869939378471 0 1 0
1327 2 0.07257667978251049 1.6936263663446098 -14.98857937669894 -12.571778008961918 0 1 0
1308 1 0.09699965129160239 3.1977315393275703 -18.644780220960232 -15.255990477331736 0 1 0
718 1 0.009851193513895698 6.358429306053193 -13.571509690468604 -17.42935955608386 0 0 0
2167 3 -0.47053367024291165 6.651765656726397 -16.642840967292358 -17.365697523838527 1 -1 0
2109 2 0.11371542559009287 7.220418834246985 -16.007133681250206 -15.340732742310735 0 0 0
717 1 -0.020011027075571584 6.680752767038715 -12.66830359733876 -16.45000499101748 0 0 0
744 2 0.042955129625762034 7.313266151040487 -13.054428081611594 -15.595988804832293 0 0 0
2084 2 0.07862314057840605 7.9833289243568935 -17.950513308496493 -14.062044172514964 0 0 0
2098 1 -0.03037070441339855 8.104495096351048 -15.433188869766848 -13.35829550326216 0 0 0
2097 1 -0.021840872453684178 8.083106401604915 -15.762726465159357 -14.704936001698748 0 0 0
2095 3 -0.4568906424058488 10.4069788370267 -15.01617641265242 -13.886887405250786 0 0 0
2096 1 0.08720605076327233 9.448530265891876 -15.596807312742834 -15.100117378467187 0 0 0
2085 2 0.08060534232665707 9.095222585943649 -18.090425286689488 -15.120516536629367 0 0 0
2094 1 0.1148534922728238 9.405245673545355 -15.016963727877293 -12.942052268913834 0 0 0
2059 1 0.022034176420250826 11.563195471095113 -18.053836677112905 -14.051399910551003 0 0 0
2060 1 0.18683144105830335 11.47656654441613 -18.51755388262259 -15.450171993371832 0 0 0
1242 2 0.08854814162539448 10.563286305543183 -12.720297724791136 -15.64726634069171 0 0 0
3642 2 0.0687597260288405 8.545283848333174 -14.985257799300705 -17.806717744475726 -1 0 1
2079 2 0.040221191659034296 11.603363366243364 -17.40311701299013 -17.19653706150942 0 0 0
2061 1 -0.014678795150633573 12.337447452265042 -17.64400133246631 -16.44920523712259 0 0 0
3622 1 -0.011378614133885669 9.32698192243236 -14.194292022867756 -17.831012023599442 -1 0 1
3643 2 0.08511469746220383 9.159533741939793 -13.44231626095151 -17.09483997083752 -1 0 1
2058 1 0.018598571213274403 10.806602342101254 -18.412890091203938 -13.050495962963083 0 0 0
2110 2 0.0718915794739084 7.297206074125221 -15.472532240299493 -12.734745920142496 0 0 0
3620 1 0.11027599883244622 10.240351908125962 -14.216779002007428 -18.628170878155252 -1 0 1
2077 2 0.13633321807481708 12.343537564212781 -17.290347073470496 -13.882743794361177 0 0 0
3621 3 -0.4392526479600194 11.359546643438463 -13.104045489465495 -18.754231011022807 -1 0 1
2070 1 0.04400850754757955 8.627763288006882 -18.780773809337788 -14.424999132048725 0 0 0
2080 2 0.06094484652604462 12.472379145733179 -15.15578978914882 -17.62381094308115 0 0 0
2078 2 0.0679375631784697 12.947221872990905 -18.367321799431302 -17.018799305909397 0 0 0
1156 2 0.10460795079002282 15.416840692026994 -17.89163427952587 -15.198306854486136 -1 1 0
2065 1 -0.014476769339459253 12.996877069528804 -15.292521704396005 -16.709194253358238 0 0 0
2081 2 0.08685284760761035 14.17994787556281 -13.42365249439007 -16.561160958854238 0 0 0
2064 1 0.1451597870886358 13.123197353631017 -16.421964455288375 -15.91084775513653 0 0 0
2068 3 -0.4784695734311729 13.88275800011283 -16.45668277154105 -14.801900259559758 0 0 0
2066 1 -0.0027038575510012833 13.901346301475598 -14.384584947069193 -16.117484624975333 0 0 0
2067 1 0.11431099616464473 14.479408425602465 -14.984858159627477 -14.955508887968104 0 0 0
1146 2 0.09445249991813372 17.080860148514184 -16.74876504970895 -16.25487828347084 -1 1 0
3583 2 0.3677006153240517 16.948133591060625 -13.541436752505524 -16.71649876237495 -1 0 1
3601 3 -0.5834216230335665 16.42678821118438 -12.81728519580873 -16.276334297232836 -1 0 1
2069 1 -0.016224626728420226 15.315533248857953 -14.407778408221112 -14.175607413635525 0 0 0
2082 2 0.09282270615614155 15.632313918877259 -13.379897973460597 -14.382404915554549 0 0 0
2083 2 0.08531231966610489 15.75683058142694 -14.938871760534717 -13.299041848383832 0 0 0
1115 1 0.01688280079117361 17.648455498494357 -17.632994918091885 -15.911124335715865 -1 1 0
3593 3 -0.5004646427090865 18.02490381415673 -13.95375951364544 -17.83196471203719 -1 0 1
3594 1 0.1941652854998458 18.032142604936176 -13.014951978509064 -18.578479155400373 -1 0 1
1114 1 0.1320976268241927 17.29368008359996 -18.768997192754735 -15.128565795500228 -1 1 0
3607 3 -0.4402653552149857 16.189663864277733 -17.64304571779275 -18.541803556225247 -1 0 1
3627 2 0.15040863325067833 16.716066338658365 -15.247819492109857 -18.65903524912252 -1 0 1
1135 1 0.008403256153306657 16.050090174099765 -18.716199359990203 -14.892326516735315 -1 1 0
2481 2 0.056518381948961735 -13.717854979510696 -10.95067953898495 -15.266443978564196 0 1 0
2463 1 -0.010353949245979648 -12.948449002138076 -11.609745133240713 -15.566785845352163 0 1 0
171 2 0.06279821111881115 -14.685970162056622 -11.710511519623026 -18.34578615582182 1 1 0
3316 1 -0.05568803373427234 -14.123060332655788 -7.857178635249992 -14.266889768938487 0 0 1
3327 2 0.029059540016083858 -15.06722913535986 -7.4107151139059475 -14.602349494549856 0 0 1
3308 1 0.011572538070263177 -12.933405210734161 -6.767752511642874 -15.995513705559537 0 0 1
3323 2 0.06860706972552141 -13.92409511276858 -6.3392652188702545 -16.1358188056019 0 0 1
3317 1 -0.034450720873106785 -13.781395847029678 -8.712175479133277 -13.284071675629423 0 0 1
3315 1 0.11593222439694267 -12.857278381835158 -7.680105536807849 -14.95454627346045 0 0 1
172 2 0.040654124736202134 -14.689238645668013 -8.762568761581978 -18.259542855451095 1 1 0
3328 2 0.07781795466533986 -14.566531672464942 -9.12288223727184 -12.677676348083953 0 0 1
2482 2 0.10747147870096027 -11.731879560700776 -9.920503233025292 -15.198519244027542 0 1 0
2464 1 -0.01635665635352851 -11.696172143473929 -11.020827851621439 -15.430924431000621 0 1 0
2465 1 0.16834513019783115 -10.484416389300229 -11.634608093507335 -15.572015166613996 0 1 0
2484 2 0.07655915336863006 -8.493406521740651 -10.92335343335725 -15.148211560930353 0 1 0
2466 1 -0.0021348724390626538 -9.401778554297085 -10.573767990991426 -15.59575882709439 0 1 0
2470 1 -0.014896824452907478 -10.068397927636132 -10.341206985901781 -17.993884983203507 0 1 0
2485 2 0.05661463609305994 -10.859351615476282 -11.055852304734135 -17.91611935395424 0 1 0
616 2 0.10032563474960943 -6.54325294032377 -10.202766332513454 -16.647261869410176 0 0 0
2469 1 0.13716092473997643 -9.21006389950641 -9.948809384426482 -16.97586620874538 0 1 0
3760 2 0.06105887930087752 -8.2680394868024 -12.222341649329831 -17.90188923206656 0 0 1
2483 2 0.05852648663743982 -9.586737464836785 -9.757493662217692 -14.888603214229565 0 1 0
3330 2 0.06185156954864969 -10.804013531842145 -10.286277492837703 -12.693685879560817 0 0 1
3318 1 0.0988561407830234 -12.344026628477904 -9.097215255269198 -13.359821119109718 0 0 1
3303 1 0.1324890777928913 -11.82746030467503 -6.330971233479989 -16.761668746616547 0 0 1
3319 3 -0.48936629411299587 -11.642090830031385 -8.272547300762355 -14.421459253695115 0 0 1
3307 1 0.011823171314977737 -10.51306645420654 -6.792989935554171 -16.724687160437156 0 0 1
3322 2 0.10617990501243187 -10.062434623732488 -7.530970355084692 -16.128614140421384 0 0 1
231 2 0.09463841187173394 -9.294854447615453 -7.670487536428846 -13.854265864211186 0 0 0
209 1 -0.02519011614547402 -8.391529120437902 -7.307434178052091 -13.446820737348155 0 0 0
2473 3 -0.48708774150137885 -8.228850449820198 -9.0634648288573 -17.205225980629 0 1 0
3321 2 0.05008215444747269 -9.019275690416917 -6.337188397432785 -18.291419719617956 0 0 1
230 2 0.03147571058441515 -7.894110700779381 -7.989913319165469 -12.708385181678388 0 0 0
615 2 0.07079299226949269 -6.29856289775241 -7.642156133408578 -16.185789148960033 0 0 0
2472 1 0.08411633658213297 -8.741123747787947 -8.825713963052763 -18.76294113864207 0 1 0
516 2 0.08594088881854103 -0.5833487507447686 -10.644993308249008 -13.413804851580725 0 0 0
623 2 0.07823013529154339 -3.4088668716462465 -12.305168599348267 -15.598911120368808 0 0 0
622 2 0.1020710662813533 -4.165705114778907 -12.313326864445457 -17.204454732685615 0 0 0
590 1 -0.010778331704150636 -4.302454135625718 -12.035545831022201 -16.1444607226782 0 0 0
582 1 0.13564403050002535 -4.278813825929399 -10.397886089832125 -16.125304599766842 0 0 0
583 1 0.17004983519006522 -1.9222413726388012 -10.320317611614199 -17.176964753626034 0 0 0
520 2 0.12968065841220028 -2.8256343985136727 -10.94110239989772 -13.648893711787451 0 0 0
591 1 -0.006352701922838901 -1.5172076572343052 -11.40252394507893 -17.962642848858394 0 0 0
624 2 0.04706378085198088 -0.47561993395075675 -11.706567872751927 -17.965742682207896 0 0 0
618 2 0.09151122908429364 -3.692963876527367 -10.162737036968398 -18.21114308029907 0 0 0
599 1 0.11341867120429537 -2.327353581682825 -12.263856389858045 -18.748670646240797 0 0 0
587 1 0.030981531777251912 -3.3590486591260547 -9.846206162493921 -17.21263699508069 0 0 0
592 3 -0.4570134726541169 -3.700381568058102 -9.813917311917232 -15.008129777503816 0 0 0
581 1 0.0031103016249900035 -5.66061639728218 -9.70257792850095 -16.373896619214364 0 0 0
509 1 -0.0022198495919887214 -2.7479242942407502 -11.501113456160692 -12.756968372072857 0 0 0
584 3 -0.4790336695850937 -1.0673960132236253 -9.527222985324444 -16.61478105042858 0 0 0
630 2 0.07947637695679255 -5.606290789379443 -9.022176759514048 -13.559766003860215 0 0 0
580 1 -0.022958238848791192 -5.626295875889143 -8.43306810391695 -16.12379574046508 0 0 0
617 2 0.034851507800708975 -3.6976751964916623 -7.685726774696356 -17.646937558133644 0 0 0
586 1 -0.0036223122462323253 -3.276559946604179 -8.341612213293248 -16.927724751100587 0 0 0
579 1 0.07721526667347921 -4.232996317928325 -8.339531483604931 -15.592868304420222 0 0 0
585 1 0.09373513448033811 -1.775766197693958 -8.005831267306975 -16.683485595566403 0 0 0
589 1 -0.005719652500864144 -3.953443421795093 -7.133837131780428 -14.731179377865658 0 0 0
588 1 -0.0014895172791728993 -1.118737601034006 -6.985468726828609 -16.677749033550324 0 0 0
607 1 0.15104039488438217 -4.391547414689779 -7.30113380054263 -13.210094952466084 0 0 0
620 2 0.10508259155664919 -2.8871587860856884 -6.809201189534976 -14.7096450321838 0 0 0
619 2 0.05818784751475243 -0.024019471222910482 -6.877314697406396 -16.54597361902038 0 0 0
606 1 -0.0060052451135426295 -5.195749545510095 -8.298853046425952 -12.890605641783903 0 0 0
724 1 0.08036078648658479 1.759264473568635 -11.15214522349056 -16.239251618259242 0 0 0
728 3 -0.5515324730750244 3.2835328877878 -11.13495810932954 -15.144339692910052 0 0 0
810 2 0.33637954071163895 2.9605855486175265 -10.950860597508388 -14.187785357341067 0 0 0
715 1 0.15418875452721337 5.3982287311885635 -10.807809590093761 -17.448846589873092 0 0 0
706 1 -0.01822764575391695 1.5900397556176458 -10.052339035959823 -17.310166092837438 0 0 0
725 1 0.0007272380747536042 0.748679039934963 -12.085290466500606 -15.823863563047638 0 0 0
739 2 0.08220962672779249 2.024949684913377 -10.390008109390227 -18.247576486201602 0 0 0
738 2 0.10252465498023139 0.5492440117857385 -9.879080641821611 -17.623959691135976 0 0 0
747 2 0.11379435440473193 0.38775469241971905 -12.456456342217736 -14.861497439698887 0 0 0
707 1 0.021342298649257324 5.2223515842230945 -9.50944584683536 -17.25637619852851 0 0 0
714 3 -0.4679202771219993 4.947991883827751 -11.659560645329194 -18.645646084078432 0 0 0
497 3 -0.4913931163529979 1.9867802779962425 -10.796455398818587 -12.642474243288826 0 0 0
698 1 -0.009959905669614941 2.2019564440065054 -8.694161835202465 -16.760084450371757 0 0 0
697 1 -0.029587662228231303 1.6758956576755466 -8.019152525734341 -15.636206781908006 0 0 0
703 1 0.016241599684291962 3.154562189449372 -8.050975294533051 -17.51273395124719 0 0 0
696 1 -0.027392018935136812 2.2134096846626647 -6.788744744089433 -15.259326122517548 0 0 0
702 1 0.02841532337816964 3.070019053158294 -6.621418490074895 -17.669642683598106 0 0 0
809 2 0.33663900453561524 5.035084565892248 -6.395447517929737 -16.433202678034494 0 0 0
731 2 0.051147395616679546 1.8908867643796583 -6.462918061815097 -14.274047260894324 0 0 0
733 2 0.07874352235290151 2.0858768411366775 -6.308253744428214 -18.04008106752866 0 0 0
732 2 0.09200947058774085 0.9676929291158629 -8.565511251949983 -15.00962969714049 0 0 0
699 1 0.11017525628081522 4.321127250452349 -8.665331192972888 -18.142943079495858 0 0 0
740 2 0.06662843315114546 5.749852343821651 -9.023965615253651 -16.44588145525662 0 0 0
700 3 -0.4686393157927058 5.019084213772885 -7.221047289924938 -18.60715389433089 0 0 0
716 1 0.014319855883294172 6.236608672641982 -11.297561749077794 -16.46242049498357 0 0 0
743 2 0.053449334898554246 6.613446149297676 -10.68769412900882 -15.617434005860304 0 0 0
1348 1 -0.04539401872757293 10.730140408325514 -10.4136725220089 -12.60712574926162 0 2 0
1352 2 0.030677827654758367 11.77006478450236 -10.523372524702198 -12.962922481362238 0 2 0
1228 1 -0.01972670414193214 11.217780072667093 -11.840545113785687 -15.64362398317175 0 0 0
1227 3 -0.4599515600178852 9.349877184153975 -10.382387019700415 -16.414564216010145 0 0 0
1226 1 0.10047994454708534 10.820525331069636 -10.730262658452087 -15.91900543676421 0 0 0
1225 1 -0.03775257166306027 11.63843274150133 -9.48625186058577 -15.871540875687412 0 0 0
1236 2 0.08067172551257856 8.152571227698434 -9.408994693780526 -14.999572318904987 0 0 0
1241 2 0.04261050526082089 12.24065475536877 -12.050827435682695 -15.326706211507311 0 0 0
1235 2 0.12086535405820772 6.998017905287039 -9.06625822505763 -12.861775078337386 0 0 0
1216 1 0.2280347410398312 6.63534803165815 -6.9577430945525265 -13.120134715635801 0 0 0
1217 1 0.02724188180286228 7.0809371113594 -8.293209949677651 -13.570206084825891 0 0 0
1219 1 0.17503740466181172 7.718295118058073 -7.531851304677218 -15.842235755547502 0 0 0
1221 3 -0.4885169082481977 7.341967250498385 -6.427652969085022 -15.931066969260833 0 0 0
1239 2 0.06589363999935186 11.1852029156836 -7.420777984645957 -16.381648722157177 0 0 0
1218 1 -0.01769202240798989 7.699823526612626 -8.471187142936587 -14.729078463463285 0 0 0
1224 1 -0.019599174600066143 10.858966213004763 -8.47708423342225 -16.318361138114078 0 0 0
1238 2 0.10907718719996994 8.903594984673834 -7.380715872851937 -17.80803818898296 0 0 0
1220 1 0.009073198138918132 8.519547668989844 -8.092190223034272 -17.070435747648798 0 0 0
1355 2 0.07238612435130584 11.603850454787796 -7.985824380903564 -13.136917472487038 0 2 0
1351 1 0.1589813050951728 10.575173420477235 -7.997755047857513 -12.679850872451821 0 2 0
1223 1 0.14420521322210672 9.619084983952252 -9.082376563858725 -16.59457424126251 0 0 0
1237 2 0.09732325845172188 7.845538942717578 -8.633558744474072 -17.73729257576476 0 0 0
3590 1 -0.0327067533778976 13.90056047070292 -11.76044275456091 -18.434539350432615 -1 0 1
3588 1 0.12431712456699164 16.167314785651413 -11.81581685848527 -17.28960573577284 -1 0 1
3589 1 -0.028043110543803852 14.726038160732912 -11.3774606647208 -17.49499202036769 -1 0 1
3629 2 0.11278233985148726 17.407897242278494 -10.753603171417017 -15.864945510342535 -1 0 1
3598 1 0.007404720318114507 17.05391983291478 -10.626431076867258 -16.874503034529823 -1 0 1
3624 2 0.06463227300770136 14.313882447214269 -10.588961475679643 -16.840482562646866 -1 0 1
3630 2 0.04471283671476412 17.887689804688996 -10.651956089060603 -17.56816327632779 -1 0 1
3625 2 0.10121225281098296 12.912190025075326 -11.320012759095729 -18.529772821043128 -1 0 1
3595 1 0.016345033797508183 16.6425931940611 -12.426001821654527 -18.679141507594057 -1 0 1
3615 1 -0.019828016926197144 15.885647348276862 -8.744565353306383 -18.11729859150429 -1 0 1
3613 1 0.20339458406562658 14.732856195872493 -6.78489220284375 -16.991057574913544 -1 0 1
275 2 0.145369424532044 15.682241091447914 -7.6879856848841435 -14.476790963351483 -1 0 0
243 1 0.007461710559165915 15.535990286943957 -6.738661906798226 -13.89744376186675 -1 0 0
269 2 0.09370216211691398 17.7968051009573 -7.820229740732172 -14.620253492097884 -1 0 0
234 1 -0.018893355532285723 17.876652156904157 -6.837869788021971 -14.212169592078666 -1 0 0
3614 1 -0.007209330619180387 15.251932966187468 -7.483281098396155 -18.127422507340242 -1 0 1
276 2 0.11357956736822948 15.292606985463571 -7.197339363319111 -12.863202043280394 -1 0 0
3612 3 -0.49180647431723784 16.20020716618898 -8.859410631681229 -15.766296178779408 -1 0 1
3616 1 0.16401710035922942 16.288638658602807 -9.294468727696335 -16.87868673995324 -1 0 1
1240 2 0.046539363777096276 12.609981503621107 -9.377941616099465 -15.529995882223265 0 0 0
175 1 -0.019709008471365287 -13.432761732631167 -2.9117585760080473 -15.528001915000255 0 0 0
201 1 -0.017144540471783605 -14.74242681097216 -0.8127698254090596 -13.597938073824004 0 0 0
257 1 0.11180698922652324 -16.9338554663584 -3.038708655321054 -17.432403506267196 0 0 0
210 2 0.0909571290630225 -14.385841712208686 -3.0671908776936547 -16.01673228312122 0 0 0
184 1 -0.005796174857771008 -13.654616398700112 -0.4929298375361668 -15.792688030673627 0 0 0
256 3 -0.46536977601615137 -16.670703165967826 -3.9244940602407734 -16.16354770945759 0 0 0
268 2 0.05503402580175172 -17.42287243167728 -6.225786268481354 -14.51959018642583 0 0 0
260 1 0.15968908791783515 -17.656622588196658 -3.3456593954669565 -15.394836669044638 0 0 0
242 1 -0.020293782127887055 -17.752717749156606 -3.4963488822956315 -13.854723701343323 0 0 0
258 1 -0.009452708279625938 -18.131441141174555 -2.211247344943075 -17.214702165218654 0 0 0
287 2 0.07205409193510309 -15.319886276819844 -3.610013292772532 -18.473740348210118 0 0 0
211 2 0.04638638739998263 -13.007995559004666 -4.679371226246753 -14.487735839471249 0 0 0
176 1 -0.014298346574415106 -12.7413961914813 -3.683902763343383 -14.70323826318715 0 0 0
225 2 0.08986874887440183 -13.899207310439515 -1.3084741796687354 -13.179026774733938 0 0 0
174 1 0.07679204293720314 -12.642953498549758 -1.6672026607511192 -15.445042757909388 0 0 0
266 1 -0.023220234153838483 -16.233125574010508 -3.027015836473881 -18.462792237611442 0 0 0
259 1 0.0023322157825808945 -18.514146857783253 -2.410811500409533 -15.905834259258022 0 0 0
282 2 0.05581144511310418 -18.54148875876344 -1.5625438782440213 -17.99305423582267 0 0 0
274 2 0.0428651185868356 -16.796547271501847 -3.6240551906408935 -13.413301490352135 0 0 0
202 1 0.1475896661841261 -14.887736934273748 -0.3644682295709636 -14.89639661191651 0 0 0
216 2 0.07236063402817067 -13.871359245452878 -0.5569719673805835 -16.908159684790448 0 0 0
233 1 -0.018569378688887826 -18.437728954478043 -5.984463409274399 -14.166186624646414 0 0 0
273 2 0.0512370565077319 -18.149447260943184 -2.5125889852843706 -13.471862541013518 0 0 0
226 2 0.06018509848134661 -12.473933251336337 -6.0992743001197365 -12.993369545666685 0 0 0
200 1 -0.020181510506120555 -15.96661980967043 -0.5397904953867858 -13.008073458911685 0 0 0
190 1 -0.010978701139494972 -12.044368082769374 -0.8072381989970481 -18.608329415293777 0 0 0
3304 3 -0.464702594705382 -12.194811760371582 -5.297403543197646 -17.805501099422937 0 0 1
212 2 0.04031063152696494 -11.545234829403837 -2.416720261745528 -17.21292021127049 0 0 0
187 3 -0.5182694518354232 -11.922932636447733 -1.5635523606615607 -13.895891179533049 0 0 0
177 1 0.11820626793893481 -11.50068092572199 -3.00226237979267 -14.148203592745116 0 0 0
213 2 0.08373117083205821 -10.247927470277991 -3.8859070464472136 -15.632655113724109 0 0 0
180 1 0.12501545143048248 -10.368368071436079 -0.6487018039332249 -16.429877500585643 0 0 0
181 1 -0.010841225445737021 -11.338193585285165 -1.8919382341162425 -16.334428499689366 0 0 0
182 1 0.013387200617004552 -10.530556582282134 -2.9006207802409243 -15.321341043692152 0 0 0
193 3 -0.4760655046459876 -8.793213088652971 -5.123462873297365 -14.444879130417373 0 0 0
178 1 0.15125115274324463 -9.279584165797202 -2.0296277823819366 -15.079645994063632 0 0 0
194 1 0.10626785908592958 -7.931669522510592 -3.981500592130889 -14.109490168826168 0 0 0
186 1 -0.008141180510979309 -8.178193131329659 -2.6153106824698327 -14.507328306193699 0 0 0