thermo_style   custom step temp pe ke etotal press pxx pyy pzz v_etrue v_eengx v_eengy v_eengz v_etruex v_etruey v_etruez                f_sxx_ave f_syy_ave f_szz_ave f_sxy_ave f_sxz_ave f_syz_ave lx ly lz v_dir vol density ebond eangle edihed                eimp evdwl ecoul elong epair v_Time

restart        ${nsteps} rst1.a.${myid} rst2.a.${myid}
restart        200 rst1.a.${myid} rst2.a.${myid}
restart        200 rst1.a.tensile_3_AroCy_L10_pxld_97_replicate_1_FF_PCFF-class2xe rst2.a.${myid}
restart        200 rst1.a.tensile_3_AroCy_L10_pxld_97_replicate_1_FF_PCFF-class2xe rst2.a.tensile_3_AroCy_L10_pxld_97_replicate_1_FF_PCFF-class2xe
dump           6 all atom 10000 dump.${myid} #every picosecond
dump           6 all atom 10000 dump.tensile_3_AroCy_L10_pxld_97_replicate_1_FF_PCFF-class2xe 
dump_modify    6 scale no sort id

#-------------------Run-------------------
run            ${steps}
run            750000

CITE-CITE-CITE-CITE-CITE-CITE-CITE-CITE-CITE-CITE-CITE-CITE-CITE

Your simulation uses code contributions which should be cited:

- Type Label Framework: https://doi.org/10.1021/acs.jpcb.3c08419

@Article{Gissinger24,
 author = {Jacob R. Gissinger, Ilia Nikiforov, Yaser Afshar, Brendon Waters, Moon-ki Choi, Daniel S. Karls, Alexander Stukowski, Wonpil Im, Hendrik Heinz, Axel Kohlmeyer, and Ellad B. Tadmor},
 title = {Type Label Framework for Bonded Force Fields in LAMMPS},
 journal = {J. Phys. Chem. B},
 year =    2024,
 volume =  128,
 number =  13,
 pages =   {3282–-3297}
}

CITE-CITE-CITE-CITE-CITE-CITE-CITE-CITE-CITE-CITE-CITE-CITE-CITE

PPPM initialization ...
  using 12-bit tables for long-range coulomb (../kspace.cpp:342)
  G vector (1/distance) = 0.1811641
  grid = 16 16 15
  stencil order = 5
  estimated absolute RMS force accuracy = 0.028424569
  estimated relative force accuracy = 8.5599745e-05
  using double precision KISS FFT
  3d grid and FFT values/proc = 1521 256
Generated 45 of 45 mixed pair_coeff terms from sixthpower/sixthpower mixing rule
Neighbor list info ...
  update: every = 1 steps, delay = 0 steps, check = yes
  max neighbors/atom: 5000, page size: 100000
  master list distance cutoff = 14
  ghost atom cutoff = 14
  binsize = 7, bins = 10 9 8
  1 neighbor lists, perpetual/occasional/extra = 1 0 0
  (1) pair lj/class2/coul/long, perpetual
      attributes: half, newton on
      pair build: half/bin/newton
      stencil: half/bin/3d
      bin: standard
WARNING: Inconsistent image flags (../domain.cpp:1051)
Per MPI rank memory allocation (min/avg/max) = 20.25 | 20.42 | 20.64 Mbytes
   Step          Temp          PotEng         KinEng         TotEng         Press           Pxx            Pyy            Pzz          v_etrue        v_eengx        v_eengy        v_eengz        v_etruex       v_etruey       v_etruez      f_sxx_ave      f_syy_ave      f_szz_ave      f_sxy_ave      f_sxz_ave      f_syz_ave          Lx             Ly             Lz           v_dir          Volume        Density         E_bond        E_angle        E_dihed        E_impro         E_vdwl         E_coul         E_long         E_pair         v_Time    
         0   298           -26292.619      17821.59      -8471.029      -79.011277      255.17916      1532.9737     -2025.1867      0             -6.6056086e-16 -1.1381419e-16  3.895747e-16  -6.6613381e-16 -1.110223e-16   4.4408921e-16  0              0              0              0              0              0              64.539949      62.430065      54.716803      3              220466.76      1.2480961      9212.8267      11927.769     -2965.0037      900.38564     -905.31771     -17785.707     -26677.572     -45368.597      0            
       200   298.7874      -26461.364      17868.679     -8592.6853      266.48336     -34.855657      992.24783     -157.94211      3.99992e-05    0.00055924207 -0.00056945801  4e-05          0.00055908575 -0.00056962021  3.99992e-05   -10.322054     -4.2355996      15.854759      0.47330061    -3.4030131      4.7355785      64.576043      62.394514      54.718992      3              220473.26      1.2480593      9264.262       11919.236     -3152.6635      875.15645     -922.54728     -17767.228     -26677.581     -45367.356      0.2          
       400   298.62593     -26215.585      17859.023     -8356.5617     -358.38568     -623.17362     -831.75152      379.76811      7.99968e-05    0.0017027432  -0.0012976488   8e-05          0.0017012952  -0.0012984915   7.99968e-05    12.997681      14.136566      18.892717     -0.18013747     5.2709464     -10.283673      64.649844      62.349053      54.721181      3              220573.23      1.2474937      9305.197       12039.73      -3173.4093      892.44895     -836.8997      -17764.547     -26678.105     -45279.552      0.4          
       600   298.88388     -26280.232      17874.449     -8405.7827     -328.0838      -331.84231     -788.85558      136.44649      0.0001199928   0.0011787604  -0.0017124602   0.00012        0.0011780662  -0.0017139281   0.0001199928   4.9986402     -8.0353736      19.491528      4.5647639      0.10052677     2.2120716      64.616026      62.323156      54.723369      3              220375.1       1.2486152      9417.9115      12004.159     -3222.8059      869.2702      -904.80306     -17766.329     -26677.635     -45348.767      0.6          
       800   297.09761     -26391.974      17767.623     -8624.3514     -6.2815501     -314.78175      722.57203     -426.63493      0.0001599872   0.00068375408 -0.0021333652   0.00016        0.00068352043 -0.002135644    0.0001599872  -5.3857022     -3.6014718      17.493992      15.104759      0.66372613    -19.424771      64.584079      62.296879      54.725558      3              220182.07      1.2497098      9353.6772      11943.944     -3229.3805      858.1096      -883.23321     -17758.44      -26676.652     -45318.324      0.8          
      1000   299.70115     -26210.105      17923.325     -8286.7798      626.68002      1026.0245      203.13753      650.87803      0.00019998     0.00088954289 -0.0013591981   0.0002         0.00088914748 -0.0013601226   0.00019998    -9.6015367     -14.987746     -3.3960314      14.968192      5.7709611     -8.3197138      64.59736       62.34521       54.727747      3              220407.02      1.2484344      9427.7967      11866.164     -3112.5589      885.53156     -839.72912     -17759.859     -26677.451     -45277.039      1            
      1200   301.63059     -26229.21       18038.714     -8190.4969     -315.26953     -250.16606     -666.94264     -28.699875      0.0002399712   0.00075180159  0.00076385412  0.00024        0.00075151913  0.00076356253  0.0002399712   28.471234     -4.5604142      17.207269      11.413894      7.8526396      3.8263205      64.58847       62.477753      54.729935      3              220854.03      1.2459075      9204.0605      11874.596     -2928.8378      880.08835     -825.4905      -17756.502     -26677.125     -45259.117      1.2          
      1400   295.77991     -26245.183      17688.819     -8556.3638     -71.103045     -51.490061      834.04916     -995.86823      0.00027996081 -0.0020687991   0.0031112067   0.00028       -0.002070942    0.0031063769   0.00027996081  5.4690238      16.381646      1.918885       4.5515215      4.5694407      8.4302917      64.406429      62.624298      54.732124      3              220756.95      1.2464554      9363.6047      12021.331     -3172.0955      898.0667      -934.09853     -17745.385     -26676.607     -45356.09       1.4          
      1600   302.18258     -26487.204      18071.725     -8415.4793     -260.8777       362.02604     -486.05772     -658.60143      0.00031994881 -0.0052571703   0.0048131295   0.00032       -0.0052710379   0.0048015834   0.00031994881 -11.311582     -9.0258207      13.960148      7.1065171      0.64506416     21.316248      64.200652      62.730549      54.734313      3              220433.8       1.2482827      9306.0752      11892.446     -3261.0702      878.30702     -864.80139     -17760.981     -26677.18      -45302.962      1.6          
      1800   298.53995     -26165.31       17853.881     -8311.4293     -559.38893     -234.51391     -802.10626     -641.54664      0.00035993522 -0.0075592247   0.0070020868   0.00036       -0.0075879404   0.006977686    0.00035993522 -3.5957826      10.556628      27.393059     -5.1924021      13.251778     -4.9252395      64.052077      62.867206      54.736501      3              220411.58      1.2484086      9177.5484      11952.541     -2827.2875      910.1357      -916.07368     -17783.788     -26678.386     -45378.248      1.8          
      2000   296.14799     -26281.775      17710.832     -8570.9433      434.07831      273.83796      433.307        595.08999      0.00039992002 -0.0083555708   0.007465669    0.0004        -0.0083906742   0.0074379388   0.00039992002 -9.9598104      13.231937      11.116895      0.061355042    9.0676092      4.4702299      64.000681      62.896147      54.73869       3              220344.92      1.2487862      9432.0402      11906.051     -3183.7391      889.92012     -871.22061     -17777.306     -26677.521     -45326.048      2            
      2200   299.89396     -26283.689      17934.856     -8348.8332      819.66944      981.84384      747.92368      729.24079      0.00043990323 -0.0085998767   0.0061931171   0.00044       -0.008637069    0.0061740186   0.00043990323  1.1321484      13.023595      11.044754      20.560045      15.143171      10.278975      63.984913      62.816702      54.740879      3              220021.18      1.2506237      9523.4273      11909.131     -3230.7983      869.48904     -910.06216     -17767.653     -26677.223     -45354.938      2.2          
      2400   298.25188     -26285.12       17836.653     -8448.4669     -579.44174     -779.57727     -937.56354     -21.184411      0.00047988484 -0.0080763266   0.0045074032   0.00048       -0.0081091168   0.0044972753   0.00047988484 -20.038623      10.722402      9.28559        4.5509147      6.1307587      4.8881864      64.018703      62.711463      54.743067      3              219777.35      1.2520112      9380.1088      11780.005     -2921.5946      889.93059     -956.95775     -17779.005     -26677.607     -45413.57       2.4          
      2600   299.40801     -26626.579      17905.794     -8720.785       602.01976      742.92586      411.79894      651.33448      0.00051986485 -0.0067471607   0.0024343816   0.00052       -0.0067700257   0.0024314233   0.00051986485 -11.051404      6.7950075      20.026802     -0.32926243    -10.294722     -12.743307      64.104488      62.582044      54.745256      3              219626.46      1.2528714      9296.9455      11891.185     -3330.6883      892.09235     -917.83534     -17779.489     -26678.789     -45376.114      2.6          
      2800   300.36628     -26528.733      17963.103     -8565.6298      109.76207     -277.74501      482.75503      124.27621      0.00055984326 -0.0048204449   0.0016307502   0.00056       -0.0048321007   0.001629422    0.00055984326 -6.9980936     -30.888443      4.6423322      20.017368     -2.010734       8.62672        64.228838      62.531873      54.747445      3              219884.87      1.251399       9317.4371      12016.186     -3369.6339      882.97219     -900.8063      -17797.459     -26677.429     -45375.694      2.8          
      3000   299.36097     -26137.73       17902.981     -8234.749      -885.57731     -673.53143     -706.36198     -1276.8385      0.00059982007 -0.0034142001   0.0029701545   0.0006        -0.0034200418   0.0029657523   0.00059982007 -1.6143437     -0.12347932     29.819689      21.368536      2.3603096      3.3493015      64.319597      62.615492      54.749633      3              220498.85      1.2479145      9284.4898      11939.276     -2870.4424      919.44143     -947.83665     -17785.549     -26677.109     -45410.495      3            
      3200   300.19159     -26539.408      17952.655     -8586.7527      329.43232      875.45067      360.87376     -248.02749      0.00063979529 -0.0026190742   0.0030523919   0.00064       -0.00262251     0.0030477428   0.00063979529  25.297324      17.490775      20.608831      6.3978512      2.7606085     -12.433877      64.370914      62.620626      54.751822      3              220701.69      1.2467675      9194.6992      11951.655     -3168.9803      863.41006     -914.33278     -17789.748     -26676.11      -45380.191      3.2          
      3400   299.35889     -26374.62       17902.856     -8471.7638      2.2477114      34.966756      168.02014     -196.24376      0.0006797689  -0.0046009678   0.0010098087   0.00068       -0.0046115848   0.0010092992   0.0006797689   9.5666396      19.635794      32.35468       14.865929     -0.16142245    -1.0173825      64.243003      62.493108      54.754011      3              219823.38      1.251749       9258.6413      11964.126     -3148.1802      903.08565     -921.94709     -17753.636     -26676.709     -45352.292      3.4          
      3600   299.97973     -26185.539      17939.985     -8245.5541      187.09777      859.24281     -150.92193     -147.02757      0.00071974092 -0.0058141962   0.00070223581  0.00072       -0.0058311644   0.00070198936  0.00071974092 -10.876712     -31.25517      -6.2055281      8.9272501      5.1398952     -9.072054       64.164701      62.473906      54.756199      3              219496.77      1.2536116      9423.3438      11992.605     -3160.4888      890.83103     -882.19057     -17772.778     -26676.862     -45331.83       3.6          
      3800   297.19255     -26327.153      17773.301     -8553.8516     -335.28743      166.84199     -822.85655     -349.84773      0.00075971135 -0.0053944729   0.0023799613   0.00076       -0.0054090756   0.0023771337   0.00075971135 -5.639657      -10.132721      24.242411      4.8349584      20.83805      -4.5654593      64.19179       62.578646      54.758388      3              219966.38      1.2509353      9278.8034      11939.591     -3066.6175      881.4639      -919.88798     -17763.796     -26676.71      -45360.393      3.8          
      4000   296.61467     -26337.115      17738.741     -8598.3735      231.17664      509.9327      -321.24647      504.8437       0.00079968017 -0.0048508802   0.0034024975   0.0008        -0.0048626839   0.0033967221   0.00079968017 -13.896563      18.132887      12.369411      15.686608      2.4130108      2.0509371      64.226873      62.642483      54.760577      3              220319.92      1.248928       9346.2779      11917.3       -3166.6466      897.81956     -904.56688     -17750.968     -26676.331     -45331.866      4            
      4200   299.97414     -26132.462      17939.651     -8192.8108      147.097       -205.4829       810.25994     -163.48604      0.0008396474  -0.0041495042   0.0027924704   0.00084       -0.0041581373   0.0027885787   0.0008396474  -0.92534829    -5.1434846      18.078662     -0.46250111     7.1311644      2.0583973      64.27214       62.604399      54.762765      3              220349.97      1.2487576      9493.9863      11976.779     -3126.6494      894.39985     -904.39205     -17789.093     -26677.493     -45370.978      4.2          
      4400   299.51883     -26442.208      17912.422     -8529.7866      124.5323      -39.363828     -448.04241      861.00314      0.00087961303 -0.0025239275   0.0021887443   0.00088       -0.002527118    0.0021863525   0.00087961303 -5.0599943      13.616836      46.410462     -2.4223683     -3.8462837      6.889006       64.377055      62.566709      54.764954      3              220585.59      1.2474237      9266.1675      11847.069     -3139.7989      895.94237     -824.12579     -17811.001     -26676.461     -45311.588      4.4          
      4600   297.32068     -26310.615      17780.964     -8529.6509     -278.14664     -248.74745     -158.42757     -427.26491      0.00091957706 -0.0010153404   0.0003479835   0.00092       -0.0010158562   0.00034792297  0.00091957706  7.994146       5.5938423      31.398321      11.075873     -1.7343082     -3.4328642      64.474419      62.45179       54.767143      3              220522.25      1.2477821      9294.7317      12008.039     -3149.8178      870.94439     -869.13709     -17788.196     -26677.179     -45334.512      4.6          
      4800   296.85172     -26422.977      17752.918     -8670.0585     -791.46712     -402.3886      -833.36992     -1138.6428      0.00095953949 -0.0018435503  -0.00062440071  0.00096       -0.0018452518  -0.00062459573  0.00095953949  23.692518     -7.7613667      37.030606      17.816052      5.470853       0.11413407     64.420966      62.391084      54.769331      3              220134.04      1.2499825      9196.6694      11996.587     -3105.5076      874.48697     -947.78542     -17760.543     -26676.884     -45385.212      4.8          
      5000   296.82912     -26380.127      17751.566     -8628.5609     -505.07389     -182.19186     -677.72602     -655.30381      0.00099950033 -0.0024889498  -0.0013368845   0.001         -0.0024920524  -0.001337779    0.00099950033 -24.12178      -20.905962     -4.6533151      4.3803443      5.9953129      4.3326067      64.379312      62.346603      54.77152       3              219843.65      1.2516336      9213.1027      11923.921     -3014.2378      882.21165     -967.85442     -17740.01      -26677.26      -45385.125      5            
      5200   301.82849     -26280.948      18050.548     -8230.3995     -66.201236     -676.70369      258.57215      219.52784      0.0010394596  -0.0024205714  -0.00062107396  0.00104       -0.0024235057  -0.00062126691  0.0010394596   5.2797457      5.4637034      20.868948      19.354668      13.16044      -1.9636533      64.383725      62.391292      54.773709      3              220025.1       1.2506014      9267.838       11963.955     -2893.4903      882.66251     -1044.9917     -17779.871     -26677.05      -45501.913      5.2          
      5400   297.87596     -26343.159      17814.172     -8528.987       117.63299      1724.1671      557.67971     -1928.9479      0.0010794172  -0.0032195039   0.00068359401  0.00108       -0.0032246977   0.00068336047  0.0010794172   11.187092     -5.4744164      16.942057      13.143696     -20.29626       0.9261467      64.332162      62.472742      54.775897      3              220144.69      1.249922       9437.7336      11972.903     -3320.2812      862.55095     -850.9672      -17768.462     -26676.636     -45296.065      5.4          
      5600   299.52152     -26445.616      17912.582     -8533.0332     -43.382539      773.56875     -395.48038     -508.236        0.0011193733  -0.0033500384   0.0033433074   0.00112       -0.0033556623   0.003337731    0.0011193733  -11.823776     -12.91458       15.583925      9.4931009      10.200718     -16.560026      64.323738      62.638788      54.778086      3              220709.73      1.2467221      9316.429       11958.48      -3279.3448      870.76912     -886.5559      -17748.477     -26676.916     -45311.949      5.6          
      5800   299.99595     -26155.361      17940.956     -8214.4053      266.99107      908.24746     -120.8275       13.55325       0.0011593277  -0.003449734    0.0046576154   0.00116       -0.003455698    0.0046468022   0.0011593277   1.5917909      24.516717      42.517805      9.3077359      7.6902163      11.353955      64.317303      62.72084       54.780275      3              220985.56      1.245166       9321.5569      12034.735     -3107.183       887.55095     -854.12892     -17761.538     -26676.354     -45292.021      5.8          
      6000   298.99901     -26282.62       17881.335     -8401.2853     -14.952662      408.49466     -55.122378     -398.23026      0.0011992806  -0.0041422813   0.0032382545   0.0012        -0.0041508843   0.0032330227   0.0011992806   6.5420347      20.084178      35.614912     -0.51839033     13.582024      0.23090095     64.272606      62.63223       54.782463      3              220528.81      1.2477449      9221.047       11954.87      -3020.5147      864.69988     -869.09546     -17757.134     -26676.493     -45302.722      6            
      6200   297.57373     -26385.256      17796.097     -8589.1591     -382.62959     -242.8801       311.6688      -1216.6775      0.0012392318  -0.0046352002   0.0014081509   0.00124       -0.004645976    0.0014071604   0.0012392318  -9.3044678     -14.783968      15.023913      1.9756675     -2.6712965     -8.0996954      64.240793      62.517976      54.784652      3              220026.36      1.2505943      9249.7457      11990.315     -3137.171       879.49945     -942.91331     -17747.727     -26677.005     -45367.645      6.2          
      6400   296.91085     -26450.387      17756.454     -8693.9329     -37.259675     -306.42251      1287.1005     -1092.457       0.0012791815  -0.0026972192   0.0013995284   0.00128       -0.0027008633   0.00139855     0.0012791815  -19.474102     -3.6186051      2.0739041      10.458097      11.571284      16.612689      64.365871      62.517438      54.786841      3              220461.66      1.248125       9290.7353      11997.742     -3278.7906      868.28438     -910.32058     -17739.077     -26678.961     -45328.359      6.4          
      6600   298.99514     -26343.901      17881.103     -8462.7973     -464.63898     -646.06851     -340.56842     -407.28002      0.0013191296  -0.00012771841  0.0010556291   0.00132       -0.00012772656  0.0010550723   0.0013191296   3.7522194      4.6266509      16.309518      12.627669     -1.2225075      5.1305398      64.531706      62.495968      54.789029      3              220962.59      1.2452954      9210.0741      11929.368     -3011.402       861.47168     -890.00041     -17765.816     -26677.595     -45333.412      6.6          
      6800   299.97413     -26219.727      17939.65      -8280.0768     -502.14723     -1144.5235      179.76244     -541.68059      0.001359076    0.0012546879  -0.0002829397   0.00136        0.0012539014  -0.00028297973  0.001359076    19.416151      8.5842412      16.067645      9.0453967      9.5401899     -5.5647713      64.620927      62.412401      54.791218      3              220981.05      1.2451914      9239.3018      11973.931     -3015.479       895.07162     -880.90794     -17754.921     -26676.724     -45312.552      6.8          
      7000   298.01968     -26448.416      17822.767     -8625.6492     -156.85887      596.52692      58.295362     -1125.3989      0.0013990209   0.00121339    -0.001727191    0.0014         0.0012126545  -0.0017286843   0.0013990209   10.542669      6.8377653      37.127472     -1.9643895     -0.81993967    -9.8776308      64.618261      62.322237      54.793407      3              220661.52      1.2469945      9447.2935      11900.777     -3327.0594      870.29048     -902.49624     -17759.254     -26677.967     -45339.718      7            
      7200   299.13037     -26446.907      17889.19      -8557.7164     -414.33964     -801.07238      70.52035      -512.46689      0.0014389642  -0.00013328887 -0.0038828999   0.00144       -0.00013329775 -0.003890458    0.0014389642   9.4412511      0.71234191     37.66695      -1.8620248      17.893224     -3.07019        64.531347      62.187656      54.795595      3              219897.64      1.2513263      9389.026       11853.184     -3193.8772      882.25838     -940.78872     -17759.704     -26677.005     -45377.497      7.2          
      7400   296.88285     -26454.262      17754.78      -8699.4821     -424.05317     -540.83806      6.4889101     -737.81035      0.0014789059  -0.0011400306  -0.0053889453   0.00148       -0.0011406809  -0.005403518    0.0014789059  -19.308079     -25.404743      2.1474141      5.1784232      4.6761023      5.7760115      64.466372      62.093633      54.797784      3              219352.86      1.2544341      9187.2198      12024.399     -3128.1036      871.12844     -993.78274     -17737.156     -26677.967     -45408.905      7.4          
      7600   297.46822     -26223.301      17789.787     -8433.5134     -445.98351      123.6136      -765.77613     -695.78799      0.001518846   -0.00097989969 -0.0046972007   0.00152       -0.0009803801  -0.0047082673   0.001518846   -3.8920234     -11.161931     -21.200577      10.154441      4.4605613      2.3842415      64.476706      62.136819      54.799973      3              219549.37      1.2533113      9176.9365      12032.904     -2910.4336      895.71614     -994.41686     -17746.317     -26677.689     -45418.423      7.6          
      7800   298.2292      -26329.022      17835.297     -8493.7255     -67.093481      679.71544     -712.13579     -168.86009      0.0015587845  -0.0018597166  -0.003531918    0.00156       -0.001861448   -0.0035381699   0.0015587845   18.691606     -5.6830904      11.504164      0.83757468     8.7208635      1.5150718      64.419923      62.209567      54.802161      3              219621.61      1.252899       9414.9213      12027.333     -3259.778       887.50961     -981.64322     -17740.565     -26676.8       -45399.008      7.8          
      8000   296.42124     -26321.146      17727.174     -8593.9723      495.46759      379.67193      665.37683      441.35401      0.0015987214  -0.0027259816  -0.0026565298   0.0016        -0.0027297038  -0.0026600647   0.0015987214  -19.628902      0.12722543    -8.8238541     -3.0223778      5.0852818     -0.19994571     64.364014      62.264218      54.80435       3              219632.54      1.2528367      9269.9038      12057.145     -3187.5768      906.77659     -941.44463     -17749.615     -26676.335     -45367.395      8            
      8200   295.16524     -26553.495      17652.06      -8901.435      -474.52126     -535.17163     -311.85414     -576.53802      0.0016386567  -0.0025253587  -7.6081434e-05  0.00164       -0.0025285528  -7.6084329e-05  0.0016386567   0.94225824    -13.290769      19.275575     -5.3048536      7.7354226     -1.1309351      64.376963      62.425315      54.806539      3              220253.9       1.2493023      9181.4686      11819.754     -3033.643       894.57013     -996.68764     -17740.841     -26678.116     -45415.644      8.2          
      8400   297.6143      -26259.396      17798.523     -8460.8735     -691.21751      827.02976     -1582.2376     -1318.4447      0.0016785904  -0.0023651458   0.0023413499   0.00168       -0.0023679472   0.0023386132   0.0016785904  -5.1623195      8.785109       10.161376      10.706699     -9.8052108     -3.520695       64.387303      62.576236      54.808728      3              220830.67      1.2460394      9285.0932      11918.69      -3045.0862      916.14087     -905.14835     -17751.776     -26677.31      -45334.234      8.4          
      8600   299.76816     -26391.748      17927.333     -8464.415       242.50475      781.26199     -88.335892      34.588167      0.0017185225  -0.0025806241   0.0032998489   0.00172       -0.0025839597   0.0032944164   0.0017185225   32.632772      26.984116      25.379304      18.976352      18.269288      2.5154055      64.373396      62.636075      54.810916      3              221002.92      1.2450682      9435.8         11861.823     -3225.0038      905.80649     -915.83415     -17776.57      -26677.769     -45370.174      8.6          
      8800   298.77013     -26558.642      17867.647     -8690.9956      4.9936533      727.69315      38.739801     -751.45199      0.001758453   -0.0042823237   0.0026062977   0.00176       -0.0042915191   0.0026029072   0.001758453   -1.2528854     -2.7469231      18.716688      8.8762042      5.5238168     -7.0334231      64.263568      62.592777      54.813105      3              220482.16      1.2480089      9299.643       11747.851     -3124.2334      901.87813     -905.01829     -17801.007     -26677.755     -45383.781      8.8          
      9000   298.40399     -26331.854      17845.75      -8486.104      -440.84673     -822.8965       259.04415     -758.68783      0.0017983819  -0.00466403     0.0020200571   0.0018        -0.0046749405   0.0020180195   0.0017983819  -16.632211     -7.8992109      13.043881      11.555828      0.80159807    -2.0361551      64.238933      62.556178      54.815294      3              220277.56      1.2491681      9259.4392      11932.072     -3153.9066      908.15895     -865.84718     -17734.744     -26677.026     -45277.617      9            
      9200   298.87761     -26181.154      17874.074     -8307.0798     -834.10457     -116.54875     -1171.2913     -1214.4737      0.0018383093  -0.0046617737   0.0029038028   0.00184       -0.0046726737   0.0028995949   0.0018383093   6.2802302     -5.3349305      27.746745      6.4301813     -10.198858     -11.236075      64.239078      62.61135       54.817482      3              220481.14      1.2480147      9242.1779      11950.87      -2937.0703      915.20928     -914.40117     -17760.923     -26677.016     -45352.34       9.2          
      9400   297.16764     -26324.254      17771.811     -8552.4427      101.24541      992.62333      170.16882     -859.05591      0.001878235   -0.0061720758   0.0026153315   0.00188       -0.0061912018   0.0026119175   0.001878235    4.047629       12.211735      36.700948     -11.451078     -0.51745578     4.4029008      64.141604      62.593341      54.819671      3              220092.06      1.250221       9358.1355      11860.272     -3082.2282      896.88308     -908.10713     -17772.334     -26676.875     -45357.317      9.4          
      9600   297.52905     -26464.724      17793.425     -8671.2985      1078.2453      931.18608      933.25438      1370.2953      0.0019181592  -0.0065676855   0.0026350074   0.00192       -0.0065893477   0.0026315419   0.0019181592  -15.087363     -12.725951      19.986908      1.4323038      0.073759664    5.0396133      64.116071      62.594569      54.82186       3              220017.55      1.2506444      9460.9508      11913.558     -3387.9838      906.58681     -900.51851     -17780.211     -26677.106     -45357.835      9.6          
      9800   295.47374     -26309.802      17670.509     -8639.2931     -892.6631      -421.7553      -365.7624      -1890.4716      0.0019580817  -0.0067004697   0.0022987455   0.00196       -0.0067230186   0.0022961074   0.0019580817   5.2178132      9.3563181      20.235215      1.507764       11.690795     -1.2140104      64.107501      62.573576      54.824048      3              219923.14      1.2511812      9238.5555      11892.877     -2922.0456      935.50231     -1017.317      -17761.04      -26676.335     -45454.692      9.8          
     10000   299.51803     -26126.443      17912.374     -8214.0692     -605.76356      547.61826     -910.25007     -1454.6589      0.0019980027  -0.0063784713   0.0014992647   0.002         -0.0063989007   0.0014981419   0.0019980027  -8.0407415      4.5134083     -3.5231143      0.45277352     3.6633008      11.089551      64.128283      62.523664      54.826237      3              219827.73      1.2517243      9296.2323      11964.503     -2865.0672      894.98889     -963.229       -17776.786     -26677.085     -45417.1        10           
     10200   298.93836     -26291.616      17877.707     -8413.9087      258.43737      646.58122      253.87119     -125.1403       0.002037922   -0.0047244848   0.00082712982  0.00204       -0.0047356804   0.00082678794  0.002037922   -2.0785694      7.151126       49.725473      16.002041      14.670778     -5.0774412      64.235031      62.481703      54.828426      3              220054.66      1.2504334      9411.5013      12000.602     -3195.0882      896.69961     -952.63829     -17775.221     -26677.472     -45405.331      10.2         
     10400   299.97027     -26502.594      17939.42      -8563.1739      86.264557      267.2278       1004.0993     -1012.5335      0.0020778398  -0.0042677302  -0.0012199907   0.00208       -0.0042768629  -0.0012207355   0.0020778398   5.0936709     -9.1389527      6.401426      -3.5283692     -2.7599328     -3.2476252      64.26451       62.353901      54.830614      3              219714.11      1.2523716      9315.3048      11942.394     -3272.5676      889.52386     -937.39919     -17762.336     -26677.514     -45377.249      10.4         
     10600   294.75486     -26266.673      17627.517     -8639.1556     -547.98006     -1661.5588     -355.71786      373.33648      0.002117756   -0.0036501227  -0.0018071283   0.00212       -0.0036568007  -0.0018087631   0.002117756   -2.0128337     -14.335202      37.387189      1.7594501     -4.2083402      4.3027604      64.30437       62.317246      54.832803      3              219729.92      1.2522815      9268.0529      11924.77      -2924.8526      897.944       -1012.5419     -17743.044     -26677.001     -45432.587      10.6         
     10800   295.97599     -26421.185      17700.546     -8720.6398     -7.8866465     -201.01808      352.31083     -174.95269      0.0021576706  -0.0027838819  -0.0013981824   0.00216       -0.0027877641  -0.0013991608   0.0021576706   6.6401562      11.413963      20.036366      3.9515275      5.148672       9.9738291      64.360277      62.342777      54.834992      3              220019.83      1.2506314      9254.6856      11816.028     -3109.7529      911.40023     -862.0298      -17755.283     -26676.234     -45293.547      10.8         
     11000   298.19684     -26245.507      17833.362     -8412.145       368.47149      108.73183      840.73309      155.94955      0.0021975835  -0.0025852996  -0.0013213852   0.0022        -0.0025886472  -0.001322259    0.0021975835   8.1118839      6.7975734      7.6895596      5.068059      -8.0780031      5.6521613      64.373094      62.347571      54.83718       3              220089.35      1.2502363      9322.4834      12009.329     -3142.9271      881.45544     -850.1474      -17788.303     -26677.397     -45315.847      11           
     11200   298.14701     -26305.48       17830.381     -8475.0981     -477.7625      -254.97518     -851.52783     -326.7845       0.0022374949  -0.003128075   -0.001717471    0.00224       -0.0031329776  -0.0017189475   0.0022374949  -4.5408183     -7.6177423      16.360879      6.0551384      3.3167238     -4.506992       64.338063      62.322843      54.839369      3              219891.12      1.2513634      9193.0244      11912.717     -2888.6322      923.23278     -982.91097     -17786.899     -26676.012     -45445.821      11.2         
     11400   296.8928      -26423.017      17755.375     -8667.6421      231.19235      542.93251      121.02109      29.623451      0.0022774047  -0.0023051479  -0.0025674477   0.00228       -0.0023078088  -0.0025707493   0.0022774047  -6.4982673     -1.3105055      31.858383     -9.9692441      10.229477      7.6055959      64.391175      62.269779      54.841558      3              219894.04      1.2513468      9314.4611      11886.658     -3154.3829      893.42216     -937.62537     -17748.036     -26677.513     -45363.175      11.4         
     11600   300.24585     -26244.931      17955.901     -8289.03        371.98053      414.08369     -99.095347      800.95324      0.002317313   -0.000563315   -0.0034756011   0.00232       -0.00056347372 -0.003481655    0.002317313   -6.889815       6.0999064      6.9387223      19.589931      11.81762       0.94019013     64.503593      62.213083      54.843746      3              220086.16      1.2502544      9381.4841      12060.76      -3275.8045      927.75791     -942.1018      -17720.29      -26676.737     -45339.128      11.6         
     11800   300.90544     -26129.621      17995.347     -8134.2738     -438.59453     -1688.5764      57.41701       315.37583      0.0023572196   0.0024622609  -0.0039757796   0.00236        0.0024592345  -0.0039837041   0.0023572196   3.3311988     -18.027504      17.075936      14.428584     -0.50165706    -3.4363844      64.698863      62.181857      54.845935      3              220650.43      1.2470572      9273.7148      11954.464     -2900.3765      922.83269     -930.04954     -17773.907     -26676.299     -45380.256      11.8         
     12000   296.13491     -26199.27       17710.05      -8489.2204      287.01743      1114.1516     -69.173204     -183.92612      0.0023971246   0.0048675461  -0.0043433866   0.0024         0.0048557379  -0.0043528465   0.0023971246   26.33749       12.466128      46.590984      7.2189146      9.2453511      10.497776      64.8541        62.158907      54.848124      3              221107.05      1.2444818      9365.3598      12025.097     -3090.7097      920.61659     -963.04255     -17779.391     -26677.2       -45419.633      12           
     12200   296.42086     -26212.921      17727.151     -8485.7706     -665.7965      -707.09885     -423.62276     -866.66789      0.002437028    0.0037345608  -0.0055896197   0.00244        0.0037276047  -0.0056053      0.002437028    38.747685      1.0490033      33.068972      13.73748       18.142885      3.8346812      64.780977      62.081105      54.850312      3              220590.11      1.2473982      9235.5098      11985.588     -2975.8426      916.16067     -924.48917     -17772.813     -26677.036     -45374.337      12.2         
     12400   295.77786     -26427.36       17688.697     -8738.6635      60.692264      465.05492     -472.0563       189.07817      0.0024769299   0.0012772783  -0.0069869644   0.00248        0.0012764633  -0.0070114875   0.0024769299  -20.192307     -10.702944      4.0405625      7.0599675      6.0756362      1.123751       64.622385      61.993869      54.852501      3              219749.63      1.2521691      9199.1964      11645.405     -2827.1156      916.9667      -903.89743     -17780.047     -26677.868     -45361.813      12.4         
     12600   301.02876     -26538.442      18002.722     -8535.7197      1018.727       1463.9453      297.12926      1295.1064      0.0025168301  -0.00084996918 -0.0069756599   0.00252       -0.00085033061 -0.0070001035   0.0025168301   3.6730134     -18.625474      9.4208408      2.5293913     -10.699516      4.7876034      64.485092      61.994574      54.85469       3              219294.01      1.2547707      9330.3431      11944.472     -3249.5511      902.90007     -1053.9427     -17735.611     -26677.053     -45466.606      12.6         
     12800   299.00555     -26384.695      17881.725     -8502.9698      106.55819     -659.39273      268.01741      711.04989      0.0025567288  -0.0026540002  -0.0058310042   0.00256       -0.0026575283  -0.0058480708   0.0025567288   3.189688      -9.8724108      18.616191     -3.2248803      5.2204418      4.6830269      64.36866       62.066035      54.856878      3              219159.13      1.255543       9256.0213      11990.001     -3069.864       898.75315     -1044.3773     -17738.655     -26676.574     -45459.606      12.8         
     13000   296.22477     -26293.496      17715.424     -8578.072      -564.27717     -77.530069     -1026.6963     -588.60517      0.0025966258  -0.0043075735  -0.0038736101   0.0026        -0.0043168778  -0.0038811319   0.0025966258  -7.9646147      2.3074663      9.2260032      2.2817964      12.500716     -5.9655825      64.261938      62.188236      54.859067      3              219235.3       1.2551068      9211.2817      11961.594     -2899.6756      901.80899     -1025.8994     -17765.305     -26677.3       -45468.505      13           
     13200   301.3769      -26340.685      18023.542     -8317.1438      705.8286      -2.6539037      1885.8659      234.27381      0.0026365213  -0.0045197328  -0.0016022823   0.00264       -0.0045299777  -0.0016035674   0.0026365213  -9.8046637     -9.2698481     -1.1352184      5.5981692      3.4050442      3.6391073      64.248246      62.330035      54.861256      3              219697.13      1.2524684      9320.6297      11991.374     -3236.5817      915.30348     -921.98456     -17731.769     -26677.657     -45331.411      13.2         
     13400   300.07178     -26302.322      17945.49      -8356.8316     -565.52122     -537.36219     -400.04892     -759.15254      0.0026764152  -0.0040527252   0.00060362776  0.00268       -0.0040609598   0.00060344565  0.0026764152  -9.7144298      11.472977      6.4683066      1.3397122     -8.1395524     -1.6229663      64.278386      62.46775       54.863444      3              220294.62      1.2490714      9265.1581      12005.415     -3040.6945      911.29385     -1027.8913     -17737.733     -26677.87      -45443.495      13.4         
     13600   296.65117     -26200.587      17740.924     -8459.6626     -897.96548     -1455.465      -261.12653     -977.3049       0.0027163075  -0.0040976204   7.8549643e-05  0.00272       -0.0041060387   7.8546558e-05  0.0027163075   9.4469303      17.698285      18.009026      15.79954      -1.9417486      22.271981      64.275489      62.434969      54.865633      3              220177.88      1.2497336      9307.9387      11859.683     -2888.4975      882.69237     -917.84659     -17767.332     -26677.225     -45362.403      13.6         
     13800   296.71176     -26389.167      17744.548     -8644.6194      908.78247      477.58833      1379.4175      869.34154      0.0027561982  -0.0051910917  -0.00029435362  0.00276       -0.0052046122  -0.00029439695  0.0027561982  -6.3570266     -1.7753786      3.0076819      22.139817      6.2458673      1.1907766      64.204916      62.411689      54.867822      3              219862.89      1.2515241      9301.8235      11973.233     -3255.3913      900.20641     -875.95058     -17754.638     -26678.449     -45309.038      13.8         
     14000   296.77913     -26504.709      17748.577     -8756.1322      225.25266     -40.046174      995.74165     -279.93748      0.0027960873  -0.0054031116  -0.00060838911  0.0028        -0.0054177612  -0.00060857425  0.0027960873  -0.38594391    -10.590496      0.55497584     11.503003      30.36072      -0.66596032     64.191232      62.392083      54.87001       3              219755.75      1.2521343      9279.5789      11851.995     -3172.825       913.32669     -943.94138     -17754.796     -26678.046     -45376.784      14           
     14200   299.38077     -26228.525      17904.165     -8324.3596     -301.14218     -166.21871     -409.22701     -327.98081      0.0028359748  -0.0048991038  -0.00085886555  0.00284       -0.0049111438  -0.00085923458  0.0028359748   5.188218       18.687931      31.147879      10.78265       1.8713472      4.3524992      64.223761      62.376446      54.872199      3              219820.77      1.2517639      9322.5917      11925.739     -2944.1981      910.11319     -966.33606     -17798.586     -26677.849     -45442.771      14.2         
     14400   299.91166     -26388.813      17935.915     -8452.8981      339.98109      644.47468      529.46727     -153.99869      0.0028758607  -0.0039749525  -0.003313167    0.00288       -0.0039828736  -0.0033186677   0.0028758607  -15.196065      11.97559       7.3597065      9.9755794      6.9755385      9.2982934      64.283406      62.223224      54.874388      3              219493.2       1.253632       9271.2142      12057.078     -3201.2647      904.0908      -960.19144     -17781.879     -26677.861     -45419.931      14.4         
     14600   297.4567      -26327.847      17789.098     -8538.7492      503.98024      988.16725      474.16395      49.609518      0.0029157451  -0.0032838302  -0.0058674653   0.00292       -0.0032892338  -0.0058847465   0.0029157451   8.4140537     -10.731301      21.512247     -0.47715973     7.995517       5.6642637      64.328011      62.063759      54.876576      3              219091.34      1.2559315      9351.7753      12010.703     -3202.0539      899.67342     -948.0144      -17761.578     -26678.353     -45387.945      14.6         
     14800   296.24855     -26376.828      17716.846     -8659.9814     -691.86203     -304.3151      -392.307       -1378.964       0.0029556278  -0.0015262715  -0.0067169866   0.00296       -0.0015274374  -0.0067396471   0.0029556278  -21.269773     -24.651638     -17.730156      1.8230955     -8.1270358     -11.860834      64.441444      62.010723      54.878765      3              219298.87      1.2547429      9309.24        11954.046     -3100.1714      890.06942     -986.0151      -17766.235     -26677.762     -45430.012      14.8         
     15000   296.25659     -26399.119      17717.327     -8681.7922     -131.1727       94.340846     -142.61135     -345.24759      0.002995509    0.00060026306 -0.0065382834   0.003          0.00060008298 -0.0065597516   0.002995509    14.750008      4.8059112      9.4678018     -9.0772972      0.20635863    -3.7597331      64.57869       62.02188       54.880954      3              219814.23      1.2518011      9333.2057      11968.314     -3202.2902      888.21508     -929.68341     -17779.77      -26677.11      -45386.564      15           
     15200   299.05955     -26213.086      17884.955     -8328.1315      98.896306      150.49388      162.91456     -16.719516      0.0030353885   0.0018409658  -0.0059843599   0.00304        0.0018392733  -0.006002338    0.0030353885   15.91765      -10.479458      9.0044744      4.8381812      14.29319      -0.78451562     64.658765      62.056461      54.883142      3              220218.29      1.2495043      9398.7171      12077.729     -3210.6414      924.66029     -921.35047     -17805.148     -26677.052     -45403.551      15.2         
     15400   297.64898     -26248.13       17800.597     -8447.5335     -320.42037     -1408.9135      336.95915      110.69324      0.0030752665   5.2673813e-06 -0.0065013395   0.00308        5.2673674e-06 -0.0065225653   0.0030752665   25.130836      18.568714      19.329721     -7.3085825      0.34382696    -5.2007271      64.540289      62.024186      54.885331      3              219709.21      1.2523995      9279.6619      12062.814     -3085.9511      888.56315     -925.88861     -17790.12      -26677.21      -45393.218      15.4         
     15600   298.23465     -26396.602      17835.622     -8560.9798      860.51354      610.7427       1045.0965      925.70139      0.0031151429  -0.0030092815  -0.0071723508   0.00312       -0.0030138185  -0.0071981957   0.0031151429  -15.361852     -18.650002      4.1184114      13.306373      2.7764855     -3.9914361      64.34573       61.982295      54.88752       3              218907.68      1.2569852      9248.4441      12047.266     -3179.5877      876.91959     -946.21303     -17766.093     -26677.338     -45389.644      15.6         
     15800   301.09336     -26221.234      18006.585     -8214.6493      115.14631      1072.7579     -411.23053     -316.08846      0.0031550177  -0.0033847943  -0.0055655182   0.00316       -0.0033905357  -0.0055810634   0.0031550177  -27.129288     -26.938688      8.4310994      2.081222       15.315447     -2.6296916      64.321495      62.08261       54.889708      3              219188.12      1.2553769      9257.5073      12026.363     -2950.6497      896.1936      -1005.1957     -17767.465     -26677.988     -45450.648      15.8         
     16000   300.51485     -26447.056      17971.988     -8475.0685      238.46402      284.63988      233.88964      196.86255      0.0031948909  -0.0029461196  -0.0026161246   0.0032        -0.002950468   -0.0026195526   0.0031948909   15.021704      17.043262      21.656424      13.572815     -18.446914     -8.964741       64.349807      62.26674       54.891897      3              219943.75      1.251064       9317.0702      11916.728     -3088.9555      883.70947     -1027.5625     -17769.465     -26678.581     -45475.609      16           
     16200   295.96578     -26284.817      17699.935     -8584.8817      436.65456      1491.25        7.2449298     -188.53129      0.0032347625  -0.004455849   -0.0016499675   0.00324       -0.0044658058  -0.0016513302   0.0032347625   29.289374      2.6249555      11.729526      3.5393166     -5.5965213     -0.26963954     64.252369      62.327058      54.894086      3              219832.21      1.2516988      9355.6029      12007.79      -3149.0291      901.74368     -926.63252     -17796.11      -26678.182     -45400.924      16.2         
     16400   298.17412     -26374.599      17832.003     -8542.5961     -242.40271      101.29061     -1420.1329      591.6342       0.0032746325  -0.0068860663  -0.0012670519   0.00328       -0.0069098847  -0.0012678553   0.0032746325   4.8505421     -0.56980102     16.941425      0.032733338   -2.5628503     -4.1025063      64.095523      62.350963      54.896274      3              219388.44      1.2542307      9362.8763      11998.373     -3214.4156      900.05251     -947.33645     -17796.941     -26677.208     -45421.485      16.4         
     16600   297.23017     -26370.933      17775.551     -8595.3823      221.16264      1281.1729      204.33977     -822.02475      0.003314501   -0.0091237621  -0.00064689068  0.00332       -0.0091656386  -0.0006471      0.003314501   -8.6107306      0.32427318     45.505022     -14.773222      10.270399     -5.5281208      63.951102      62.38968       54.898463      3              219038.76      1.2562329      9239.6384      11934.67      -3053.5831      926.36929     -967.51835     -17772.465     -26678.045     -45418.028      16.6         
     16800   298.40608     -26346.258      17845.875     -8500.3831     -372.46205      192.66637     -791.07488     -518.97765      0.0033543678  -0.0081903698  -0.00031774636  0.00336       -0.0082240951  -0.00031779685  0.0033543678  -27.769804      12.071245      22.784886      15.599877      7.9309502     -1.4759408      64.011343      62.410228      54.900652      3              219326.05      1.2545874      9361.3609      11969.261     -3036.1053      906.91359     -1115.8182     -17753.232     -26678.639     -45547.689      16.8         
     17000   299.01841     -26194.41       17882.494     -8311.9159      272.42475     -340.33216      1062.5939      95.012556      0.0033942331  -0.0061342347  -0.00038612086  0.0034        -0.0061531264  -0.00038619542  0.0033942331  -9.8797645     -12.266107      33.634316      17.021366      11.380564     -1.1031952      64.144046      62.40596       54.90284       3              219774.46      1.2520276      9280.3421      12065.561     -2964.3442      879.8257      -960.31362     -17816.298     -26679.183     -45455.795      17           
     17200   296.95814     -26393.865      17759.282     -8634.5828     -297.73596     -88.195128     -282.92902     -522.08372      0.0034340967  -0.0047480281   0.00038420439  0.00344       -0.0047593358   0.0003841306   0.0034340967   17.355573     -13.369392      32.850238      0.57928001     9.2421821      4.1305591      64.233512      62.454051      54.905029      3              220259.38      1.2492712      9209.5216      12048.254     -3122.5027      887.28738     -983.02888     -17755.099     -26678.297     -45416.425      17.2         
     17400   297.525       -26383.899      17793.183     -8590.7159     -59.917844      732.58719      172.00388     -1084.3446      0.0034739588  -0.0052756708   0.0004181706   0.00348       -0.0052896363   0.00041808319  0.0034739588   10.629982      20.296673      5.6951219     -3.7848507     -8.9225898      4.3321255      64.199458      62.456172      54.907218      3              220158.85      1.2498416      9377.144       12022.36      -3320.6428      887.30353     -906.77398     -17765.893     -26677.397     -45350.064      17.4         
     17600   301.50478     -26106.654      18031.189     -8075.4642      2.5398338      835.02282     -604.62969     -222.77363      0.0035138193  -0.005856482   -0.00025808053  0.00352       -0.0058736985  -0.00025811383  0.0035138193  -6.8730011      4.1689742      24.809175      3.7871557      16.51576       13.566703      64.161972      62.413953      54.909406      3              219890.34      1.2513679      9378.5376      12096.926     -3130.0656      874.689       -905.14043     -17743.86      -26677.739     -45326.74       17.6         
     17800   298.60053     -26217.327      17857.504     -8359.8228     -28.827673      1049.9721     -111.16794     -1025.2872      0.0035536782  -0.0051434917  -0.0011310709   0.00356       -0.005156765   -0.001131711    0.0035536782  -17.765549     -0.35539252    -2.0115574      1.9966065     -2.6117496      13.06885       64.207988      62.359452      54.911595      3              219864.65      1.2515141      9293.7426      12062.493     -3125.2025      892.80274     -905.03361     -17758.008     -26678.121     -45341.163      17.8         
     18000   297.13479     -26298.914      17769.846     -8529.0674      92.96161       673.18848      431.75935     -826.063        0.0035935355  -0.0042183424  -0.0022727293   0.0036        -0.0042272647  -0.0022753159   0.0035935355   12.615731     -4.5630325      20.177972     -13.763059     -1.9493996      1.4457858      64.267697      62.288179      54.913784      3              219826.35      1.2517321      9349.287       12042.108     -3188.0997      879.63942     -909.44516     -17794.176     -26678.227     -45381.848      18           
     18200   295.75781     -26405.048      17687.498     -8717.5506     -462.45084      0.66301103    -1375.8802     -12.135371      0.0036333912  -0.0026364726  -0.0038511537   0.00364       -0.0026399542  -0.0038585885   0.0036333912  -8.9213722      13.255601      7.0237706      4.0047633      7.1891876      5.5051739      64.369791      62.189637      54.915972      3              219836         1.2516772      9233.7988      11959.564     -3090.3412      903.95        -983.02308     -17752.286     -26676.711     -45412.02       18.2         
     18400   298.961       -26494.47       17879.061     -8615.4084      86.093234      666.52516      11.442636     -419.68809      0.0036732454  -0.0013085153  -0.0051046444   0.00368       -0.0013093721  -0.0051177176   0.0036732454  -0.61453981    -23.587588      19.293542      2.1284503      3.1187846      6.6565741      64.455498      62.111382      54.918161      3              219860.47      1.2515379      9365.5876      11932.31      -3346.5936      884.02034     -873.75391     -17778.9       -26677.141     -45329.794      18.4         
     18600   299.39166     -26202.715      17904.816     -8297.8982     -509.9976      -547.77319     -883.2337      -98.985895      0.0037130979  -0.00024881881 -0.0038891961   0.00372       -0.00024884977 -0.0038967787   0.0037130979   11.919759     -9.8675894      0.062777521    6.984649       0.15868912    -1.9654457      64.52389       62.187262      54.92035       3              220371.42      1.248636       9266.2271      11967.233     -2964.2075      929.6005      -960.79275     -17763.353     -26677.422     -45401.568      18.6         
     18800   297.81442     -26327.013      17810.491     -8516.5211     -28.943184      320.31087     -11.547312     -395.59311      0.0037529489  -1.5528427e-05 -0.0036253208   0.00376       -1.5528547e-05 -0.0036319082   0.0037529489   5.2242518      21.120671      46.575578      6.0434961     -1.3424132     -9.1435107      64.538947      62.203736      54.922538      3              220490.03      1.2479644      9194.8433      11877.354     -2925.5203      892.32897     -930.75834     -17757.497     -26677.763     -45366.018      18.8         
     19000   301.37444     -26254.346      18023.394     -8230.9512      434.92126     -134.24831      248.74721      1190.2649      0.0037927982  -0.0011787048  -0.0040610468   0.0038        -0.0011794     -0.0040693152   0.0037927982   8.0707355     -6.5083498      26.72675       9.6220087      7.3474317      3.8833165      64.463876      62.176534      54.924727      3              220146.01      1.2499145      9397.0497      12065.665     -3241.8629      890.06953     -947.56864     -17740.522     -26677.176     -45365.267      19           
     19200   298.51278     -26108.549      17852.256     -8256.2935     -249.65065      21.261548     -233.89348     -536.32002      0.003832646   -0.0034138088  -0.0044813327   0.00384       -0.0034196492  -0.0044914039   0.003832646   -3.5015681      1.2571508      31.898849      1.3258561      3.429897       0.45188444     64.319622      62.150295      54.926916      3              219569.44      1.2531967      9315.1283      11974.109     -2859.4861      894.40452     -967.62473     -17788.302     -26676.778     -45432.705      19.2         
     19400   296.28267     -26160.903      17718.886     -8442.0173     -760.97564     -74.579307     -904.90632     -1303.4413      0.0038724922  -0.0046122036  -0.0031169904   0.00388       -0.0046228727  -0.0031218583   0.0038724922  -7.6084592     -8.229593       15.121433      0.94066838     6.5337854     -4.5247749      64.242278      62.235471      54.929104      3              219614.71      1.2529384      9193.5749      12030.724     -2865.9241      893.73953     -978.59574     -17756.522     -26677.901     -45413.018      19.4         
     19600   296.35825     -26354.025      17723.406     -8630.6183     -384.60975     -504.1461      -1004.2727      354.58952      0.0039123368  -0.004324538   -0.0015845306   0.00392       -0.0043339159  -0.0015857873   0.0039123368  -1.4589513      4.9893769      28.991049      18.514066      8.9410972      0.6192234      64.260844      62.331143      54.931293      3              220024.65      1.250604       9330.4005      12021.82      -3186.017       880.20112     -978.97678     -17743.04      -26678.412     -45400.429      19.6         
     19800   298.39267     -26451.226      17845.073     -8606.1534      174.14559     -79.627981      736.28286     -134.21809      0.0039521798  -0.0061464223  -0.0016649005   0.00396       -0.0061653893  -0.001666288    0.0039521798   14.323476      3.8321047      30.176439     -2.2973824      1.5241569      2.5898054      64.143259      62.326125      54.933482      3              219613.12      1.2529475      9325.5625      11921.949     -3164.5779      881.9792      -999.06519     -17739.755     -26677.319     -45416.14       19.8         
     20000   297.86112     -26174.227      17813.284     -8360.9429     -570.75745     -542.41583     -60.831803     -1109.0247      0.0039920213  -0.007229516   -0.0010367937   0.004         -0.0072557756  -0.0010373315   0.0039920213  -21.639363     -10.313995      18.566385      0.79677476     6.4267786      5.1047695      64.073356      62.365338      54.93567       3              219520.55      1.2534758      9271.6793      11953.496     -2914.5473      903.5147      -930.0169      -17781.892     -26676.46      -45388.369      20           
     20200   296.7311      -26473.315      17745.704     -8727.6106      247.76089     -789.10614      521.39131      1010.9975      0.0040318611  -0.0063670693   0.00066074502  0.00404       -0.0063874255   0.00066052683  0.0040318611  -2.597449       5.3693043      15.404783      6.3167743      1.4202159      7.7768981      64.129019      62.471316      54.937859      3              220093.38      1.2502135      9336.6221      12001.6       -3331.9321      904.6008      -964.68933     -17742.045     -26677.471     -45384.205      20.2         
     20400   300.29023     -26130.026      17958.554     -8171.4716     -586.85254     -405.06895     -603.673       -751.81567      0.0040716994  -0.0061275601   0.0034245116   0.00408       -0.0061464106   0.0034186613   0.0040716994  -0.27746874    -10.272052      24.4813       -4.0088836     -0.72856393     0.87434833     64.144477      62.643858      54.940048      3              220763.26      1.2464198      9302.7106      11901.902     -2822.9728      888.56006     -947.46795     -17774.513     -26678.244     -45400.226      20.4         
     20600   300.98828     -25926.722      18000.301     -7926.4216     -982.60915     -1232.1734     -946.69428     -768.95973      0.004111536   -0.0071024036   0.0039856597   0.00412       -0.0071277458   0.003977738    0.004111536    14.893511      25.037901      53.531131     -5.1118255      12.919616     -6.488558       64.08156       62.67889       54.942237      3              220678.85      1.2468966      9370.4023      12009.074     -2842.988       917.55156     -964.27383     -17738.352     -26678.136     -45380.762      20.6         
     20800   299.6157      -26492.785      17918.215     -8574.5707      1087.3352      332.08184      1307.5679      1622.3558      0.0041513711  -0.0089838697   0.0020343356   0.00416       -0.009024468    0.0020322691   0.0041513711   1.2143113      30.039634      52.529329     -7.0896125     -6.8409544      3.3279024      63.960131      62.557069      54.944425      3              219841.34      1.2516468      9390.4896      12082.396     -3527.9518      902.50621     -881.49539     -17780.08      -26678.65      -45340.225      20.8         
     21000   295.73324     -26254.006      17686.028     -8567.9781     -406.67517      864.91314     -1007.6142     -1077.3244      0.0041912046  -0.0099421352  -0.00030034402  0.0042        -0.0099918883  -0.00030038913  0.0041912046  -31.549668     -20.14117       3.9222609      21.186641      8.1769291      1.99134        63.898284      62.411315      54.946614      3              219125.77      1.2557341      9365.9174      11847.917     -2989.5003      908.58081     -929.8173      -17777.874     -26679.23      -45386.921      21           
     21200   297.3433      -26174.669      17782.316     -8392.3521     -54.167614      509.68608      557.39573     -1229.5847      0.0042310365  -0.0078947154  -0.0004890163   0.00424       -0.0079260437  -0.0004891359   0.0042310365  -14.242419     -9.0665281      6.7920375      17.351377      0.20914161     0.68217037     64.030425      62.399536      54.948803      3              219546.22      1.2533292      9316.2681      11976.781     -2970.5229      907.23475     -949.94141     -17775.119     -26679.369     -45404.429      21.2         
     21400   298.26146     -26087.196      17837.226     -8249.97        55.359171      644.45481     -553.62368      75.246375      0.0042708669  -0.005003959   -0.0012862129   0.00428       -0.0050165208  -0.0012870407   0.0042708669   12.183512      15.857574      35.110579      13.255238     -1.8022079      11.810268      64.216994      62.349767      54.950991      3              220019.08      1.2506357      9374.9768      12207.871     -3136.2399      907.12864     -1034.2624     -17729.882     -26676.789     -45440.933      21.4         
     21600   295.84213     -26262.046      17692.541     -8569.5055      21.671815      855.1138       24.303612     -814.40196      0.0043106956  -0.0043727218  -0.0036560485   0.00432       -0.0043823101  -0.0036627482   0.0043106956   10.313311      6.5142975      8.1079631      2.0182161     -0.86996516     4.2630795      64.257734      62.201818      54.95318       3              219644.99      1.2527656      9307.4113      12018.007     -3094.8425      892.42054     -917.51142     -17789.884     -26677.647     -45385.043      21.6         
     21800   298.81172     -26429.596      17870.134     -8559.4623     -380.9513       43.773856     -55.054133     -1131.5736      0.0043505227  -0.0046922735  -0.0047109204   0.00436       -0.0047033168  -0.0047220518   0.0043505227  -0.29012761    -16.494694      27.451488      2.2710719      6.0514532     -1.5102587      64.23711       62.135962      54.955369      3              219350.76      1.2544461      9301.439       11828.83      -2997.6904      876.87497     -986.20399     -17774.828     -26678.017     -45439.049      21.8         
     22000   296.4833      -26358.698      17730.885     -8627.8133     -513.04119      252.55907     -1083.9274     -707.75526      0.0043903483  -0.0050317162  -0.0049177853   0.0044        -0.0050444179  -0.0049299174   0.0043903483   5.1475665     -19.27855       34.711749     -0.79760004    -7.2560611     -8.7988322      64.215202      62.123048      54.957557      3              219239.11      1.2550849      9174.5997      11923.472     -2885.1285      870.13029     -994.42912     -17768.449     -26678.894     -45441.772      22           
     22200   298.77975     -26223.484      17868.222     -8355.2621     -49.052391      120.8364      -89.576302     -178.41728      0.0044301723  -0.0053172925  -0.0044687898   0.00444       -0.0053314797  -0.0044788047   0.0044301723  -1.3844559     -4.9533042      4.8069614      17.010521      14.774821      11.238954      64.196771      62.151078      54.959746      3              219283.81      1.2548291      9491.0838      11959.469     -3178.4117      903.36936     -976.76023     -17743.885     -26678.349     -45398.994      22.2         
     22400   299.26412     -26452.921      17897.189     -8555.7323      28.994327      410.79792     -142.442       -181.37293      0.0044699947  -0.0047502018  -0.0020121455   0.00448       -0.0047615199  -0.0020141726   0.0044699947  -14.599858     -7.4637755      0.75797305     17.889274      11.589084      0.35218335     64.233371      62.304447      54.961935      3              219959.02      1.2509771      9223.1965      12017.498     -3253.3532      876.1307      -886.60754     -17752.313     -26677.473     -45316.394      22.4         
     22600   297.222       -26310.124      17775.062     -8535.0622     -749.29334     -284.79342     -742.76651     -1220.3201      0.0045098155  -0.0034907077  -0.00021753275  0.00452       -0.0034968145  -0.00021755642  0.0045098155   6.5943355      18.766867      13.216069      23.935806      7.5826357      9.3523461      64.314659      62.416485      54.964123      3              220642.2       1.2471037      9300.6952      11987.601     -3073.4232      869.03138     -933.82711     -17783.455     -26676.747     -45394.029      22.6         
     22800   300.41655     -26292.881      17966.109     -8326.7722      334.28392      776.94605     -550.61638      776.5221       0.0045496347  -0.0029692631  -0.00033765432  0.00456       -0.0029736801  -0.00033771134  0.0045496347   5.0533364      17.106195      31.369452     -9.1895315      0.43933002     4.411527       64.348313      62.408985      54.966312      3              220739.92      1.2465516      9303.595       12035.987     -3189.7297      903.05531     -862.32856     -17806.088     -26677.372     -45345.788      22.8         
     23000   301.15182     -26397.764      18010.081     -8387.6826      103.35004      978.87811     -11.876993     -656.95099      0.0045894523  -0.0035029667  -0.00092482143  0.0046        -0.0035091165  -0.00092524934  0.0045894523   9.7321771     -10.097805      22.568497      1.6811006      9.2684859     -5.030056       64.313868      62.372329      54.968501      3              220500.96      1.2479025      9235.9146      12065.181     -3259.785       875.11487     -834.65344     -17800.48      -26679.056     -45314.189      23           
     23200   298.09323     -26406.354      17827.165     -8579.1892      341.78294      1152.9231     -94.414535     -33.159724      0.0046292684  -0.0046725674  -0.001502708    0.00464       -0.004683518   -0.0015038382   0.0046292684  -12.766697     -8.0315554      21.879396      4.9085392      7.0919336     -9.3314065      64.238382      62.336251      54.970689      3              220123.52      1.2500422      9247.4073      12033.141     -3248.8492      892.1439      -870.8725      -17782.367     -26676.958     -45330.197      23.2         
     23400   297.36975     -26347.887      17783.898     -8563.9888      492.64891      928.42781      591.96264     -42.443716      0.0046690828  -0.004289479   -0.0013253478   0.00468       -0.0042987052  -0.0013262269   0.0046690828   4.233829      -10.87688      -13.883332      18.790474      15.682863     -6.4074415      64.263106      62.347324      54.972878      3              220256.13      1.2492897      9378.0888      12104.311     -3393.4536      880.90769     -845.06037     -17795.391     -26677.289     -45317.741      23.4         
     23600   299.28064     -26465.553      17898.177     -8567.376      -281.25341      79.943048     -1264.7136      341.01034      0.0047088957  -0.0035024559   0.00039100828  0.00472       -0.0035086038   0.00039093185  0.0047088957  -12.705032      2.6878576      34.104393     -4.1157034     -10.469581     -0.56991959     64.313901      62.454476      54.975067      3              220817.85      1.2461117      9275.526       11928.793     -3186.054       872.23744     -896.89791     -17781.811     -26677.347     -45356.056      23.6         
     23800   294.85393     -26326.992      17633.442     -8693.5498     -396.0696       177.54673     -538.82872     -826.92681      0.004748707   -0.0033026513   0.0018801533   0.00476       -0.0033081171   0.0018783881   0.004748707    31.010027      17.462288      55.366093      11.232099      1.624719       1.6419674      64.326796      62.547443      54.977255      3              221199.7       1.2439606      9307.5947      11937.219     -3139.4791      895.66496     -837.58831     -17812.624     -26677.779     -45327.991      23.8         
     24000   300.31419     -26213.193      17959.987     -8253.2054      717.99099      2228.7353      160.88908     -235.65139      0.0047885167  -0.0053479694   0.0024444223   0.0048        -0.005362321    0.0024414396   0.0047885167   11.284565      9.2299526      59.435475      12.706858      17.039553     -9.5949162      64.194791      62.582671      54.979444      3              220878.9       1.2457673      9337.2154      11944.399     -3085.4679      901.84344     -850.16576     -17782.563     -26678.454     -45311.183      24           
     24200   297.59486     -26104          17797.361     -8306.6397     -46.004064      625.40476      398.78238     -1162.1993      0.0048283249  -0.0075726802   0.0014301696   0.00484       -0.0076014986   0.0014291479   0.0048283249  -18.875113      10.537573      25.89991       12.927004      10.503941     -8.6671526      64.051209      62.519351      54.981633      3              220170.65      1.2497747      9360.9069      11862.304     -2909.6087      918.02974     -847.93649     -17809.26      -26678.435     -45335.632      24.2         
     24400   300.89768     -26566.464      17994.883     -8571.581       201.66926      588.57115      433.66672     -417.23008      0.0048681314  -0.0085110811   0.00057575928  0.00488       -0.0085475072   0.0005755936   0.0048681314  -12.772719     -5.9957715      32.848211      8.0675783     -6.2027387     -2.2741295      63.990644      62.46601       54.983821      3              219783.54      1.2519759      9222.7847      11763.686     -3080.9712      881.01834     -894.11104     -17780.546     -26678.324     -45352.981      24.4         
     24600   297.92701     -26441.292      17817.224     -8624.0679      563.05014      623.32523      435.7361       630.08908      0.0049079364  -0.0080509465   0.00039961696  0.00492       -0.0080835304   0.00039953714  0.0049079364  -4.5153634      3.9172311      35.520303      10.731612      10.399451     -5.9785951      64.020341      62.455013      54.98601       3              219855.58      1.2515657      9344.1107      11932.094     -3246.4632      876.895       -880.94867     -17788.302     -26678.678     -45347.928      24.6         
     24800   296.15452     -26379.923      17711.223     -8668.7006     -1150.9975     -1073.491      -845.04616     -1534.4553      0.0049477397  -0.007531162    0.0010874036   0.00496       -0.0075596644   0.0010868128   0.0049477397  -11.67759      -12.551731      39.322776     -2.4651226      4.4333886      3.7620191      64.053888      62.497952      54.988199      3              220130.78      1.250001       9201.296       11753.333     -2753.813       897.45818     -1028.1985     -17771.681     -26678.318     -45478.198      24.8         
     25000   299.85167     -26467.572      17932.327     -8535.2452      330.70005      607.52801      504.05568     -119.48354      0.0049875415  -0.0063143686   0.00048128105  0.005         -0.0063343885   0.00048116527  0.0049875415   11.714684      19.514992      25.920237      0.97179285     5.428511       10.245021      64.13242       62.460112      54.990387      3              220275.99      1.249177       9237.3195      11961.901     -3232.993       911.18158     -910.85818     -17756.462     -26677.661     -45344.982      25           
     25200   297.03063     -26407.434      17763.617     -8643.8168      452.74533      359.83414      1316.6564     -318.25457      0.0050273417  -0.0055668166  -0.00096165488  0.00504       -0.0055823691  -0.00096211757  0.0050273417  -3.1494194      2.8031777      9.398029       7.5725171      9.0923645      1.8594534      64.180667      62.370029      54.992576      3              220132.54      1.2499911      9390.5834      11996.047     -3296.7239      908.70308     -980.0062      -17748.457     -26677.58      -45406.043      25.2         
     25400   295.98475     -26272.168      17701.07      -8571.0987      452.39049      1288.2141      59.000534      9.9567877      0.0050671403  -0.0049463599  -0.0021721073   0.00508       -0.0049586336  -0.0021744697   0.0050671403   3.3340609     -16.915979      8.9916538      13.807103      4.0768366     -8.5776254      64.220711      62.29446       54.994765      3              220011.76      1.2506773      9347.089       11880.243     -2930.5692      893.4052      -980.11102     -17804.586     -26677.639     -45462.336      25.4         
     25600   297.28108     -26410.931      17778.595     -8632.3353     -630.40834      93.388937     -961.53249     -1023.0815      0.0051069374  -0.002671447   -0.0033996915   0.00512       -0.0026750217  -0.0034054836   0.0051069374  -17.065868      3.8676785      19.238186     -5.2692831      6.6935376     -3.5880708      64.367534      62.217822      54.996953      3              220252.23      1.2493118      9227.9159      11835.313     -3039.4059      886.41508     -882.4371      -17761.769     -26676.963     -45321.169      25.6         
     25800   299.18095     -26344.109      17892.215     -8451.894      -366.91232     -668.1817       113.01922     -545.57447      0.0051467328  -0.00018486279 -0.0048190438   0.00516       -0.00018487988 -0.0048306928   0.0051467328   7.9062199     -1.0932464      45.41125       8.6754195      7.4903017     -4.6364899      64.528018      62.129212      54.999142      3              220495.68      1.2479324      9286.0764      12114.414     -3263.2226      892.64151     -952.82088     -17743.904     -26677.294     -45374.019      25.8         
     26000   298.71208     -26499.556      17864.175     -8635.3809     -45.015282     -662.14942      1105.7739     -578.67035      0.0051865267   0.00020590553 -0.0057210986   0.0052         0.00020588433 -0.0057375268   0.0051865267   27.375956     -12.606108      7.8982767      10.628443     -1.4170235      6.8723451      64.553238      62.072897      55.001331      3              220390.69      1.2485269      9359.7497      11904.553     -3316.0573      875.19801     -885.15796     -17760.358     -26677.484     -45323          26           
     26200   297.32812     -26445.307      17781.408     -8663.8988     -548.1697      -348.15819     -352.85769     -943.49322      0.005226319   -0.0012139826  -0.0058394825   0.00524       -0.0012147201  -0.0058565989   0.005226319    7.1425772      5.0984409      14.776016      12.98192       3.4303555      6.3733012      64.461599      62.065506      55.003519      3              220060.38      1.250401       9356.8165      11954.464     -3287.6609      882.36837     -904.62024     -17768.348     -26678.328     -45351.296      26.2         
     26400   299.91846     -26316.512      17936.321     -8380.1908     -510.57832     -581.02543      265.21147     -1215.921       0.0052661097  -0.0032542315  -0.0059200225   0.00528       -0.0032595381  -0.0059376153   0.0052661097   12.946631     -5.9680933      39.845336      4.0532809      7.2832793      4.8367559      64.329921      62.060478      55.005708      3              219601.8       1.2530121      9288.3137      11971.154     -3062.3047      903.45919     -978.61394     -17760.293     -26678.227     -45417.134      26.4         
     26600   295.9585      -26366.322      17699.5       -8666.8217     -209.13557      480.25808     -78.459248     -1029.2055      0.0053058988  -0.0053834897  -0.0054576979   0.00532       -0.0053980329  -0.0054726456   0.0053058988  -11.65468      -12.858845      13.261815     -2.677973      -2.6314379     -0.30373767     64.192499      62.089341      55.007897      3              219243.32      1.2550608      9210.5095      12046.609     -3089.4908      907.39489     -996.24238     -17767.626     -26677.476     -45441.345      26.6         
     26800   299.32376     -26430.43       17900.756     -8529.6747     -766.51146      166.01556     -368.50184     -2097.0481      0.0053456863  -0.0062149841  -0.0046910442   0.00536       -0.0062343775  -0.0047020817   0.0053456863  -4.4426415      6.6993488      21.199147      7.0032623     -3.1061369     -4.4183191      64.138834      62.137203      55.010085      3              219237.62      1.2550935      9325.6959      12003.938     -3145.826       903.68685     -1074.034      -17765.505     -26678.387     -45517.926      26.8         
     27000   299.19008     -26207.797      17892.761     -8315.0357      12.609046      614.68721     -106.13113     -470.72894      0.0053854723  -0.0056381566  -0.002363896    0.0054        -0.005654111   -0.0023666944   0.0053854723  -27.744024     -38.226454      3.7588481      12.190065      25.173611     -13.618151      64.176063      62.282487      55.012274      3              219886.52      1.2513896      9363.0618      12030.252     -3080.0068      915.43408     -988.22123     -17770.737     -26677.579     -45436.538      27           
     27200   296.83408     -26211.545      17751.863     -8459.6815      198.52504     -67.528231      1225.5584     -562.45506      0.0054252566  -0.005630307    0.00067650813  0.00544       -0.0056462169   0.0006762794   0.0054252566   18.623307      25.789404      41.163597      11.141776      9.9564059     -5.88681        64.176569      62.4723        55.014463      3              220567.17      1.2475279      9327.2945      12025.192     -3000.7979      896.91927     -1019.9856     -17762.818     -26677.349     -45460.153      27.2         
     27400   295.22225     -26324.627      17655.469     -8669.1582      59.23477      -824.59388      1104.1225     -101.82431      0.0054650394  -0.007157787    0.0010348366   0.00548       -0.0071835269   0.0010343015   0.0054650394   19.348378      28.60893       32.556002     -3.3057519      2.1750325     -1.1444897      64.077986      62.49467       55.016651      3              220315.97      1.2489503      9290.1633      11997.068     -3141.1659      897.09529     -905.97853     -17783.602     -26678.208     -45367.788      27.4         
     27600   300.71424     -26185.643      17983.912     -8201.7309     -328.49518     -1307.9638     -621.21707      943.6953       0.0055048206  -0.0096676382   0.00047120453  0.00552       -0.0097146732   0.00047109354  0.0055048206   12.366154      0.032252412    44.759597     -4.5174243      2.3752398     -13.991321      63.916         62.459483      55.01884       3              219644.03      1.2527712      9376.8371      12020.923     -3055.5862      899.82651     -970.69489     -17779.224     -26677.724     -45427.643      27.6         
[...]
    744000   296.64956     -25719.324      17740.828     -7978.4966     -367.31893      236.12626      1102.8202     -2440.9033      0.13871792    -0.069752942   -0.044667623    0.1488        -0.072305074   -0.045695961    0.13871792    -12.976292     -3.1296388      194.70266     -7.3362595     -12.099192      4.1161811      60.038098      59.641463      62.858664      3              225081.79      1.2225054      9235.3918      12182.229     -3003.5325      897.13719     -629.22435     -17725.137     -26676.188     -45030.549      744          
    744200   297.23719     -25857.682      17775.97      -8081.7115     -771.65106      141.80339     -69.801677     -2386.9549      0.13875274    -0.068653113   -0.046107508    0.14884       -0.071123475   -0.047204306    0.13875274     7.7601094     -0.64428764     213.84455     -9.7770861     -6.0948082      14.162755      60.109081      59.55157       62.860852      3              225016.09      1.2228624      9214.133       12096.175     -2920.8959      884.75681     -729.61905     -17726.13      -26676.101     -45131.85       744.2        
    744400   300.49372     -25557.968      17970.724     -7587.2438     -672.04287     -581.27518      247.84872     -1682.7022      0.13878755    -0.067931818   -0.04834216     0.14888       -0.070349311   -0.04954972     0.13878755    -5.9391235     -16.750835      205.23927     -5.6347745     -7.1775205      3.5515423      60.155633      59.412061      62.863041      3              224670.63      1.2247426      9258.8083      12195.522     -2824.8319      915.06322     -684.70265     -17742.024     -26675.802     -45102.529      744.4        
    744600   300.27327     -25795.133      17957.54      -7837.5926     -878.94645     -523.79271      693.81577     -2806.8624      0.13882237    -0.06703802    -0.048536018    0.14892       -0.06939083    -0.049753447    0.13882237     11.622791     -8.3032017      188.05513     -2.6587716     -6.4652145      10.685877      60.213319      59.399958      62.86523       3              224848.09      1.223776       9118.5156      12192.112     -2897.9766      908.40006     -744.76374     -17695.678     -26675.742     -45116.184      744.6        
    744800   298.00857     -25803.703      17822.102     -7981.6009     -369.77321      80.436933      547.98485     -1737.7414      0.13885719    -0.067679754   -0.047276728    0.14896       -0.070078912   -0.048430793    0.13885719     0.91886118    -9.5355628      178.67091     -14.779285     -6.8609272      11.947675      60.171901      59.478576      62.867418      3              224998.66      1.2229571      9158.6636      12027.584     -2848.6294      918.50205     -669.07587     -17714.673     -26676.074     -45059.823      744.8        
    745000   298.26967     -25859.386      17837.717     -8021.6689     -765.44079     -908.67953      123.38661     -1511.0294      0.138892      -0.068340295   -0.045670493    0.149         -0.070787655   -0.046746272    0.138892       2.8760756      13.892362      185.73968      3.0584317     -1.543407       11.586293      60.12927       59.578853      62.869607      3              225226.15      1.2217218      9312.6777      11945.645     -2893.2014      910.06226     -702.43309     -17756.298     -26675.838     -45134.569      745          
    745200   300.5236      -26025.214      17972.511     -8052.703       413.62656      1229.1592      1709.5719     -1697.8514      0.13892681    -0.069260918   -0.044876134    0.14904       -0.071776297   -0.045914244    0.13892681    -1.2134385      7.1541835      181.47131     -4.4256448     -4.4983003      8.1454014      60.069853      59.628445      62.871796      3              225198.72      1.2218706      9348.2599      12140.672     -3403.7344      897.115       -584.50077     -17746.535     -26676.49      -45007.527      745.2        
    745400   295.17709     -25681.942      17652.768     -8029.1731     -423.71176      355.40868      670.78624     -2297.3302      0.13896162    -0.069588408   -0.044025865    0.14908       -0.072128219   -0.045024422    0.13896162    -11.316976     -4.6859797      184.11362      12.087446      1.5369532     -6.6829454      60.048717      59.681528      62.873984      3              225327.73      1.2211711      9171.4489      12231.485     -2898.1504      883.85675     -632.70203     -17762.528     -26675.352     -45070.582      745.4        
    745600   300.03162     -25722.257      17943.088     -7779.169      -1154.2369     -761.81683     -653.53595     -2047.358       0.13899643    -0.068400421   -0.043258541    0.14912       -0.070852193   -0.044222082    0.13899643    -5.7298608      3.2772171      188.65275     -2.142413       12.542867      14.224636      60.125389      59.729432      62.876173      3              225804.39      1.2185932      9145.7086      12160.462     -2870.1596      900.07488     -674.92676     -17707.26      -26676.157     -45058.344      745.6        
    745800   301.73277     -25699.502      18044.824     -7654.678      -593.96455     -437.84406      1000.1476     -2344.1972      0.13903124    -0.067688286   -0.043526867    0.14916       -0.070088063   -0.04450258     0.13903124     21.061093      4.5670827      200.39967      9.8904919      2.883691       11.942178      60.171351      59.71268       62.878362      3              225921.49      1.2179616      9240.2683      12185.373     -2976.8946      916.35442     -676.74874     -17712.722     -26675.132     -45064.603      745.8        
    746000   297.08209     -25683.378      17766.695     -7916.6826     -266.1773      -121.1498       718.66869     -1396.0508      0.13906605    -0.069520996   -0.043314207    0.1492        -0.072055767   -0.044280267    0.13906605     21.189935      7.4878656      229.93991     -4.5659112     -1.0447523      22.80363       60.053068      59.725956      62.88055       3              225535.36      1.2200468      9222.4814      12234.333     -2948.0433      917.96861     -712.54768     -17722.756     -26674.814     -45110.118      746          
    746200   298.37229     -25940.586      17843.854     -8096.7323     -786.86096     -150.2355      -31.9753       -2178.3721      0.13910085    -0.072750615   -0.043429379    0.14924       -0.075532726   -0.04440066     0.13910085    -10.300234     -12.896683      167.92517     -2.4907046      6.540022       29.338924      59.844628      59.718766      62.882739      3              224733.31      1.2244011      9047.9734      12124.038     -2952.9678      915.28105     -692.05597     -17707.829     -26675.025     -45074.911      746.2        
    746400   298.81535     -25837.336      17870.351     -7966.9857      82.023164      193.50572      812.82265     -760.25888      0.13913566    -0.074235803   -0.042454688    0.14928       -0.077135723   -0.043382236    0.13913566    -31.531066     -8.4066414      171.83745     -5.1636944      9.5830861      23.971492      59.748774      59.779616      62.884928      3              224609.79      1.2250744      9181.7961      12085.538     -2983.1476      923.66401     -636.45084     -17731.939     -26676.797     -45045.187      746.4        
    746600   300.6468      -25701.427      17979.879     -7721.5489     -310.12932      455.30371      625.38355     -2011.0752      0.13917046    -0.072866005   -0.040503874    0.14932       -0.075657177   -0.041347001    0.13917046    -17.675694      3.4235891      174.60617     -21.498768     -8.4084454      12.73341       59.837181      59.901406      62.887116      3              225408.26      1.2207348      9255.4266      12160.81      -2884.6632      907.31625     -746.43482     -17719.278     -26674.605     -45140.317      746.6        
    746800   296.88576     -25817.388      17754.953     -8062.4346     -1309.2736     -688.82267      1.7109158     -3240.709       0.13920527    -0.071054016   -0.040910209    0.14936       -0.073704686   -0.041770578    0.13920527     7.3740118      28.430204      213.89751     -13.382057     -10.774499      9.1816378      59.954126      59.876038      62.889305      3              225761.01      1.2188274      9240.9189      12209.621     -3130.6003      925.76971     -715.75935     -17672.702     -26674.636     -45063.097      746.8        
    747000   297.61064     -25855.681      17798.305     -8057.3761     -195.76572      280.37026      1478.828      -2346.4954      0.13924007    -0.069616804   -0.043129131    0.1494        -0.072158739   -0.04408683     0.13924007    -6.6146509     -5.8176317      191.16309      3.380049      -5.5622272      17.015905      60.046884      59.737511      62.891494      3              225595.02      1.2197242      9240.1574      12190.704     -3180.5923      901.72714     -590.78168     -17740.658     -26676.237     -45007.677      747          
    747200   297.69017     -25793.567      17803.061     -7990.5064     -1102.3084     -1139.2176     -226.32281     -1941.3848      0.13927487    -0.06862906    -0.044481889    0.14944       -0.07109765    -0.045501561    0.13927487     14.911996      2.4540881      199.50005      2.0727487     -4.1963461      18.453586      60.110633      59.653058      62.893682      3              225523.1       1.2201132      9061.076       12046.877     -2666.9916      874.90713     -731.06988     -17701.947     -26676.418     -45109.435      747.2        
    747400   299.3188      -25796.954      17900.459     -7896.4952     -602.27238      353.06627      663.13007     -2823.0135      0.13930967    -0.069611046   -0.045313943    0.14948       -0.07215255    -0.046372729    0.13930967     18.439328     -9.2586809      216.32843     -2.0561384      2.7937263      7.9703384      60.047256      59.601113      62.895871      3              225096.98      1.2224229      9114.176       12117.239     -2840.4752      903.28896     -696.33413     -17719.096     -26675.753     -45091.183      747.4        
    747600   298.99434     -25545.305      17881.055     -7664.2502     -1528.5321     -346.7227      -1439.5677     -2799.3058      0.13934446    -0.070408993   -0.045891381    0.14952       -0.073010568   -0.046977758    0.13934446    -17.339021      8.3567956      175.55987      2.6055905      4.138329      -0.25140596     59.995756      59.565063      62.89806       3              224775.71      1.2241701      9171.3037      12253.372     -2799.4814      905.57388     -692.62281     -17706.717     -26676.734     -45076.074      747.6        
    747800   297.08225     -25801.402      17766.704     -8034.6973     -764.06969     -468.23903     -446.9107      -1377.0593      0.13937926    -0.06922622    -0.047408494    0.14956       -0.071739017   -0.048569108    0.13937926    -23.359568      5.8123436      171.08154     -13.268476      11.324607      0.67189521     60.072092      59.47035       62.900248      3              224711.66      1.224519       9191.6693      12141.198     -2901.8792      907.06211     -746.39394     -17717.438     -26675.62      -45139.452      747.8        
    748000   299.13087     -25804.224      17889.22      -7915.0038     -696.97141     -259.73882     -245.00353     -1586.1719      0.13941406    -0.067146263   -0.048523503    0.1496        -0.069506856   -0.049740294    0.13941406     11.605163      0.42591363     194.88283      0.051003353   -0.43863111     9.7862589      60.206333      59.40074       62.902437      3              224958.03      1.223178       9163.7462      12208.228     -3014.3011      906.45751     -690.23686     -17702.221     -26675.897     -45068.354      748          
    748200   296.39941     -25892.17       17725.868     -8166.3014     -124.48761      227.91215      870.43875     -1471.8137      0.13944885    -0.066362998   -0.049107012    0.14964       -0.068667565   -0.050353749    0.13944885     9.4162087     -23.783481      166.98936     -4.062344      -5.3214253      25.287167      60.256885      59.364311      62.904626      3              225016.67      1.2228592      9226.0967      12173.8       -3136.0786      915.27053     -655.13225     -17740.663     -26675.464     -45071.259      748.2        
    748400   298.23312     -25923.559      17835.531     -8088.0278     -1114.9364     -444.23291      45.599725     -2946.176       0.13948364    -0.066583507   -0.048083554    0.14968       -0.068903776   -0.049278015    0.13948364     0.98979752    -11.635013      200.58799      7.7476715     -0.86670462     1.8303888      60.242653      59.428206      62.906814      3              225213.49      1.2217905      9173.2574      12062.355     -2971.4812      889.65132     -686.81139     -17714.711     -26675.819     -45077.342      748.4        
    748600   302.64323     -25768.919      18099.273     -7669.6454     -1491.2447     -452.78116     -711.79434     -3309.1587      0.13951843    -0.067521972   -0.046283197    0.14972       -0.06990969    -0.047388504    0.13951843     15.424001      10.792589      206.24356     -2.6150012      2.1805479     -4.8394319      60.182084      59.540602      62.909003      3              225420.42      1.2206689      9279.9238      12202.503     -3042.3603      901.3043      -714.44403     -17719.655     -26676.19      -45110.289      748.6        
    748800   299.12997     -25785.76       17889.166     -7896.5934     -114.34078      835.08908     -89.014397     -1089.097       0.13955322    -0.068431912   -0.046041673    0.14976       -0.070885997   -0.047135291    0.13955322    -18.775107      8.5119165      169.66906      7.7099875      3.2025862      16.170041      60.123357      59.555681      62.911192      3              225265.31      1.2215094      9334.9904      12143.765     -3139.8692      892.92893     -598.80371     -17742.19      -26676.581     -45017.574      748.8        
    749000   299.42319     -25860.941      17906.702     -7954.2387     -546.56496     -331.02252      914.08713     -2222.7595      0.13958801    -0.067915648   -0.047283148    0.1498        -0.070331962   -0.048437531    0.13958801     0.20480132     25.20022       207.20065      5.7643237      4.2006508      15.069643      60.156677      59.478175      62.91338       3              225104.66      1.2223812      9072.6677      11977.732     -2743.3099      898.50034     -659.30321     -17731.02      -26676.208     -45066.531      749          
    749200   296.55584     -25814.38       17735.223     -8079.1566     -620.01664      66.946554      48.677733     -1975.6742      0.1396228     -0.067820787   -0.048499005    0.14984       -0.070230194   -0.049714547    0.1396228      4.7828814     -19.172454      198.69544     -4.5717168      10.854931      8.9410268      60.162799      59.402269      62.915569      3              224848.09      1.2237761      9175.75        11938.553     -2776.0381      919.33653     -681.16684     -17715.03      -26675.784     -45071.981      749.2        
    749400   302.42443     -25788.895      18086.188     -7702.7063      57.529673      1045.0719      495.61729     -1368.1002      0.13965759    -0.06841138    -0.048845002    0.14988       -0.070863957   -0.050078245    0.13965759     1.4476749     -9.7178482      194.32294     -4.8082246     -1.1998387      12.22744       60.124682      59.380669      62.917758      3              224631.74      1.2249547      9315.0985      12073.811     -2916.4679      923.51294     -770.21476     -17739.262     -26675.372     -45184.849      749.4        
    749600   299.28353     -25742.002      17898.35      -7843.6525     -759.06839     -211.59526     -740.42673     -1325.1832      0.13969237    -0.068114996   -0.047706025    0.14992       -0.070545858   -0.048881495    0.13969237    -17.082837     -20.055799      173.66391      11.710861      5.0072949      27.045678      60.143811      59.451775      62.919946      3              224980.1       1.223058       9079.0681      12008.114     -2715.7276      920.40955     -655.44401     -17702.605     -26675.817     -45033.866      749.6        
    749800   298.30308     -25732.072      17839.715     -7892.3571     -456.64725      667.99798     -534.30926     -1503.6305      0.13972716    -0.067772645   -0.046209664    0.14996       -0.070178551   -0.047311405    0.13972716     10.718052      2.9129898      192.22955      2.3728057      0.67748152     23.305151      60.165906      59.545193      62.922135      3              225424.24      1.2206482      9025.9856      12131.293     -2667.1959      908.13484     -733.0141      -17721.443     -26675.832     -45130.29       749.8        
    750000   294.2606      -25852.504      17597.959     -8254.5456     -306.14492      1014.1776      72.264663     -2004.8771      0.13976194    -0.068170714   -0.045298995    0.15          -0.07060565    -0.046357071    0.13976194     8.5068654      9.8788731      195.20959     -4.6153284     -12.233412      5.9268999      60.140215      59.602046      62.924324      3              225550.97      1.2199624      9278.9767      12005.63      -2996.4078      899.058       -653.7383      -17709.957     -26676.066     -45039.761      750          
Loop time of 15835.4 on 16 procs for 750000 steps with 20064 atoms

Performance: 4.092 ns/day, 5.865 hours/ns, 47.362 timesteps/s, 950.275 katom-step/s
99.0% CPU use with 16 MPI tasks x no OpenMP threads

MPI task timing breakdown:
Section |  min time  |  avg time  |  max time  |%varavg| %total
---------------------------------------------------------------
Pair    | 9669.6     | 10166      | 10629      | 228.0 | 64.20
Bond    | 2825.5     | 2913.5     | 2987.5     |  85.3 | 18.40
Kspace  | 822.19     | 1311.2     | 1894       | 719.3 |  8.28
Neigh   | 730.37     | 730.58     | 730.83     |   0.6 |  4.61
Comm    | 194.33     | 198.67     | 202.11     |  16.8 |  1.25
Output  | 90.908     | 90.912     | 90.923     |   0.0 |  0.57
Modify  | 274.15     | 363.37     | 402.17     | 265.0 |  2.29
Other   |            | 60.87      |            |       |  0.38

Nlocal:           1254 ave        1287 max        1197 min
Histogram: 2 0 1 0 1 2 1 4 2 3
Nghost:        11921.9 ave       12010 max       11872 min
Histogram: 4 2 3 0 1 2 2 1 0 1
Neighs:         641122 ave      665300 max      598753 min
Histogram: 1 1 1 0 0 1 5 3 1 3

Total # of neighbors = 10257959
Ave neighs/atom = 511.26191
Ave special neighs/atom = 5.8041268
Neighbor list builds = 29006
Dangerous builds = 0

#-------------------Wrap up-------------------
write_restart  ${myid}.restart
write_restart  tensile_3_AroCy_L10_pxld_97_replicate_1_FF_PCFF-class2xe.restart
System init for write_restart ...
PPPM initialization ...
  using 12-bit tables for long-range coulomb (../kspace.cpp:342)
  G vector (1/distance) = 0.17925065
  grid = 15 15 16
  stencil order = 5
  estimated absolute RMS force accuracy = 0.031038444
  estimated relative force accuracy = 9.3471353e-05
  using double precision KISS FFT
  3d grid and FFT values/proc = 1521 256
Generated 45 of 45 mixed pair_coeff terms from sixthpower/sixthpower mixing rule
write_data     ${myid}.data
write_data     tensile_3_AroCy_L10_pxld_97_replicate_1_FF_PCFF-class2xe.data
System init for write_data ...
PPPM initialization ...
  using 12-bit tables for long-range coulomb (../kspace.cpp:342)
  G vector (1/distance) = 0.17925065
  grid = 15 15 16
  stencil order = 5
  estimated absolute RMS force accuracy = 0.031038444
  estimated relative force accuracy = 9.3471353e-05
  using double precision KISS FFT
  3d grid and FFT values/proc = 1521 256
Generated 45 of 45 mixed pair_coeff terms from sixthpower/sixthpower mixing rule
Total wall time: 4:23:56
