thermo_style   custom step temp pe ke etotal press pxx pyy pzz v_etrue v_eengx v_eengy v_eengz v_etruex v_etruey v_etruez                f_sxx_ave f_syy_ave f_szz_ave f_sxy_ave f_sxz_ave f_syz_ave lx ly lz v_dir vol density ebond eangle edihed                eimp evdwl ecoul elong epair v_Time

restart        ${nsteps} rst1.a.${myid} rst2.a.${myid}
restart        200 rst1.a.${myid} rst2.a.${myid}
restart        200 rst1.a.tensile_1_EPON_862_pxld_88.2_replicate_1_FF_PCFF-class2xe rst2.a.${myid}
restart        200 rst1.a.tensile_1_EPON_862_pxld_88.2_replicate_1_FF_PCFF-class2xe rst2.a.tensile_1_EPON_862_pxld_88.2_replicate_1_FF_PCFF-class2xe
dump           6 all atom 10000 dump.${myid} #every picosecond
dump           6 all atom 10000 dump.tensile_1_EPON_862_pxld_88.2_replicate_1_FF_PCFF-class2xe 
dump_modify    6 scale no sort id

#-------------------Run-------------------
run            ${steps}
run            750000

CITE-CITE-CITE-CITE-CITE-CITE-CITE-CITE-CITE-CITE-CITE-CITE-CITE

Your simulation uses code contributions which should be cited:

- Type Label Framework: https://doi.org/10.1021/acs.jpcb.3c08419

@Article{Gissinger24,
 author = {Jacob R. Gissinger, Ilia Nikiforov, Yaser Afshar, Brendon Waters, Moon-ki Choi, Daniel S. Karls, Alexander Stukowski, Wonpil Im, Hendrik Heinz, Axel Kohlmeyer, and Ellad B. Tadmor},
 title = {Type Label Framework for Bonded Force Fields in LAMMPS},
 journal = {J. Phys. Chem. B},
 year =    2024,
 volume =  128,
 number =  13,
 pages =   {3282–-3297}
}

CITE-CITE-CITE-CITE-CITE-CITE-CITE-CITE-CITE-CITE-CITE-CITE-CITE

PPPM initialization ...
  using 12-bit tables for long-range coulomb (../kspace.cpp:342)
  G vector (1/distance) = 0.18107008
  grid = 15 15 15
  stencil order = 5
  estimated absolute RMS force accuracy = 0.022075831
  estimated relative force accuracy = 6.6480709e-05
  using double precision KISS FFT
  3d grid and FFT values/proc = 1690 256
Generated 66 of 66 mixed pair_coeff terms from sixthpower/sixthpower mixing rule
Neighbor list info ...
  update: every = 1 steps, delay = 0 steps, check = yes
  max neighbors/atom: 5000, page size: 100000
  master list distance cutoff = 14
  ghost atom cutoff = 14
  binsize = 7, bins = 9 9 9
  1 neighbor lists, perpetual/occasional/extra = 1 0 0
  (1) pair lj/class2/coul/long, perpetual
      attributes: half, newton on
      pair build: half/bin/newton
      stencil: half/bin/3d
      bin: standard
WARNING: Inconsistent image flags (../domain.cpp:1051)
WARNING: Bond/angle/dihedral extent > half of periodic box length (../domain.cpp:1172)
Per MPI rank memory allocation (min/avg/max) = 19.08 | 19.45 | 19.49 Mbytes
   Step          Temp          PotEng         KinEng         TotEng         Press           Pxx            Pyy            Pzz          v_etrue        v_eengx        v_eengy        v_eengz        v_etruex       v_etruey       v_etruez      f_sxx_ave      f_syy_ave      f_szz_ave      f_sxy_ave      f_sxz_ave      f_syz_ave          Lx             Ly             Lz           v_dir          Volume        Density         E_bond        E_angle        E_dihed        E_impro         E_vdwl         E_coul         E_long         E_pair         v_Time    
         0   298            24402.281      18706.318      43108.599      58.237664      109.9049       298.26953     -233.46143      0              7.2931796e-16 -3.7167195e-16 -6.0281919e-16  6.6613381e-16 -3.3306691e-16 -5.5511151e-16  0              0              0              0              0              0              58.455388      57.35241       58.93498       1              197582.9       1.2147784      9225.311       20489.258     -7908.5989      403.05691     -2855.2114      24995.792     -19947.327      2193.2541      0            
       200   301.47716      24844.405      18924.589      43768.995     -1331.5257     -1436.9145     -1770.7063     -786.95641      3.99992e-05    4e-05         -3.5431492e-05  0.00019280506  3.99992e-05   -3.543212e-05   0.00019278648 -2.1327164     -5.957065      -1.0876648      13.99917      -12.862734     -12.057815      58.457726      57.350378      58.946343      1              197621.9       1.2145387      9417.2928      20630.562     -7774.555       391.59188     -2845.3241      24974.122     -19949.284      2179.5135      0.2          
       400   299.09868      25008.859      18775.285      43784.144     -515.10109     -378.65419      29.349598     -1195.9987      7.99968e-05    8e-05          0.0012090724   0.0013692384   7.99968e-05    0.0012083421   0.0013683018  -20.811734     -13.860218     -9.0135543      13.17815      -6.4864132     -15.539554      58.460065      57.421754      59.015676      1              198108.51      1.2115554      9515.7532      20586.922     -7744.8092      402.38513     -2808.373       25001.74      -19944.759      2248.6081      0.4          
       600   297.08191      24986.059      18648.687      43634.746      128.87508      216.73009     -454.3277       624.22283      0.0001199928   0.00012        0.0029991214   0.0017802742   0.0001199928   0.002994633    0.0017786914   4.1876807      5.7546684      16.764897      3.1981866     -10.273192     -9.6257161      58.462403      57.524417      59.0399        1              198552.11      1.2088486      9533.9228      20491.824     -7751.0143      405.6981      -2806.1355      25057.604     -19945.841      2305.6281      0.6          
       800   299.90214      24989.157      18825.721      43814.878     -510.57849     -857.72856     -188.20911     -485.79779      0.0001599872   0.00016        0.0024474218   8.2626338e-05  0.0001599872   0.0024444317   8.2622924e-05  12.106633      40.811423      30.830463      18.878719     -8.7499137      3.9211293      58.464741      57.492776      58.93985       1              198114.53      1.2115186      9388.8939      20662.568     -7645.8505      386.96175     -2856.8992      25003.216     -19949.733      2196.5836      0.8          
      1000   296.42458      24890.239      18607.424      43497.663     -196.35886     -374.20938     -3.3886478     -211.47855      0.00019998     0.0002         0.0011005444  -0.0023028464   0.00019998     0.0010999392  -0.002305502   -12.842336     -21.353621     -21.953944      19.888443     -3.7328665      2.3099875      58.467079      57.415529      58.799262      1              197384.32      1.2160006      9585.9227      20507.097     -7792.6841      399.84008     -2811.1771      24949.689     -19948.448      2190.0636      1            
      1200   300.64457      24850.473      18872.325      43722.798      609.69926     -358.41474      710.39787      1477.1147      0.0002399712   0.00024        0.00046775962 -0.0037517088   0.0002399712   0.00046765026 -0.0037587641  -21.125961     -1.0047759     -18.93927       9.675684      -5.8048299     -25.785192      58.469417      57.379237      58.713873      1              196980.97      1.2184905      9571.2478      20453.11      -7817.4924      382.34068     -2771.6141      24979.477     -19946.596      2261.2664      1.2          
      1400   298.28849      24912.98       18724.427      43637.407     -115.33637     -967.37939      256.4335       364.93676      0.00027996081  0.00028        0.0010791495  -0.0030661581   0.00027996081  0.0010785677  -0.0030708684  -14.229288     -15.61855      -5.9502122      28.889515     -1.1687281     -23.981711      58.471756      57.414302      58.754276      1              197244.86      1.2168603      9555.5036      20503.343     -7760.6043      396.48633     -2849.5027      25013.563     -19945.809      2218.2513      1.4          
      1600   299.06282      24830.009      18773.034      43603.043     -595.85051     -41.552778     -711.36558     -1034.6332      0.00031994881  0.00032        0.0027656588  -0.0022789952   0.00031994881  0.0027618414  -0.0022815961   16.796048      1.6013602      7.5227215      16.917301      13.229833     -6.1898159      58.474094      57.511027      58.800667      1              197741.07      1.2138067      9459.5629      20526.117     -7757.0269      374.29528     -2843.2274      25016.212     -19945.923      2227.0611      1.6          
      1800   296.5275       24886.945      18613.885      43500.83       1072.9089      445.91562      1142.1396      1630.6714      0.00035993522  0.00036        0.0026009178  -0.0018937877   0.00035993522  0.0025975413  -0.0018955832  -4.5261868      8.0480502     -11.3011        20.337304      2.9752647     -14.89828       58.476432      57.501579      58.82337       1              197792.83      1.2134891      9502.8918      20652.012     -7941.3575      388.91749     -2786.1412      25018.024     -19947.401      2284.4812      1.8          
      2000   298.82672      24944.39       18758.214      43702.604     -807.48859     -451.54046     -364.07541     -1606.8499      0.00039992002  0.0004         0.0021164104  -0.0016207943   0.00039992002  0.002114174   -0.0016221092  -1.7217274      7.5572905      15.76344       12.084678     -7.3586901      6.8083407      58.47877       57.473792      58.839458      1              197759.22      1.2136953      9559.731       20476.031     -7823.8666      403.85598     -2751.9264      25025.858     -19945.293      2328.6381      2            
      2200   296.92738      24829.036      18638.987      43468.023     -208.54823      74.924187      658.51943     -1359.0883      0.00043990323  0.00044        0.00010980239 -0.0023654176   0.00043990323  0.00010979637 -0.0023682196   22.850106      24.882268      17.366761      19.106526     -0.91462933    -7.632781       58.481108      57.358708      58.795574      1              197223.92      1.2169895      9379.255       20613.641     -7813.5261      405.76817     -2834.1511      25024.638     -19946.589      2243.8978      2.2          
      2400   298.73022      24880.933      18752.156      43633.089      129.67838      16.040448      34.48291       338.51177      0.00047988484  0.00048       -0.001960533   -0.0033800006   0.00047988484 -0.0019624574  -0.0033857257  -9.8407941     -14.347007     -5.8387999      25.926426     -6.5809519     -4.1620313      58.483447      57.239969      58.73578       1              196623.35      1.2207067      9525.2601      20715.871     -8003.5865      407.58614     -2839.1848      25018.159     -19943.172      2235.8025      2.4          
      2600   301.52701      25043.133      18927.718      43970.851      280.25456      1571.3552     -27.039328     -703.55215      0.00051986485  0.00052       -0.0025195787  -0.0035465907   0.00051986485 -0.0025227581  -0.0035528947  -26.13563      -10.587111     -19.035625      5.6678916     -10.639002      1.4273797      58.485785      57.207906      58.725962      1              196488.22      1.2215462      9699.3952      20636.508     -7921.2578      389.58349     -2820.9211      25001.681     -19941.856      2238.9042      2.6          
      2800   296.12437      25104.604      18588.579      43693.183      32.439049      570.81735      559.90529     -1033.4055      0.00055984326  0.00056       -0.0027114992  -0.0024179515   0.00055984326 -0.0027151819  -0.0024208795  -31.593183      0.14781304    -7.594919       11.721541     -4.0239609     -7.1074099      58.488123      57.196899      58.792478      1              196680.79      1.2203502      9547.1476      20718.721     -7789.993       402.57369     -2858.9579      25029.419     -19944.307      2226.1542      2.8          
      3000   298.08288      24835.555      18711.52       43547.075      964.2799       869.77028      798.31017      1224.7593      0.00059982007  0.0006        -0.0027798186  -0.001766254    0.00059982007 -0.0027836895  -0.0017678157  -30.752284     -12.244229      4.7661691      3.91809        2.4472494     -11.231907      58.490461      57.192981      58.830886      1              196803.66      1.2195883      9553.1419      20601.132     -7925.8572      388.05403     -2835.8529      25002.714     -19947.778      2219.0837      3            
      3200   297.03311      24899.054      18645.623      43544.677      154.48627      934.8365       241.13411     -712.5118       0.00063979529  0.00064       -0.0016162137  -8.7843421e-05  0.00063979529 -0.0016175212  -8.784728e-05  -10.19994      -3.7414856     -18.428794      13.587542      5.4768473     -5.3942717      58.4928        57.259717      58.929803      1              197372.48      1.2160735      9391.6822      20655.377     -7777.7392      413.6501      -2844.8746      25004.672     -19943.714      2216.0831      3.2          
      3400   295.16006      24930.947      18528.047      43458.993     -374.43002     -280.82769      110.06706     -952.52943      0.0006797689   0.00068       -0.00099821464 -0.00026925625  0.0006797689  -0.00099871319 -0.0002692925   22.276693      18.059157      44.514321      4.4656859      1.0127188     -4.9640723      58.495138      57.29516       58.919111      1              197466.71      1.2154932      9367.5951      20791.287     -7852.0015      402.26709     -2825.372       24990.793     -19943.622      2221.7992      3.4          
      3600   297.81552      24984.03       18694.738      43678.767     -116.49089     -286.88458     -104.31358      41.725491      0.00071974092  0.00072       -0.0012322031  -0.0015546627   0.00071974092 -0.0012329629  -0.0015558724   17.822189     -3.1163437      1.5643879      16.738594      2.4542811      2.8543589      58.497476      57.28174       58.843356      1              197174.51      1.2172945      9559.3529      20592.671     -7809.6865      433.33432     -2837.1324      24990.654     -19945.164      2208.3583      3.6          
      3800   297.93358      24985.661      18702.149      43687.81       100.84339      289.29258      1238.9021     -1225.6645      0.00075971135  0.00076       -0.0010913821  -0.0031801653   0.00075971135 -0.0010919781  -0.0031852328  -10.555185     -12.333315     -5.9006534      2.4548143      2.066171      -7.944875       58.499814      57.289817      58.747557      1              196889.13      1.2190589      9327.4153      20740.032     -7756.3683      396.27893     -2807.6418      25031.331     -19945.386      2278.3038      3.8          
      4000   298.40251      24915.411      18731.585      43646.995     -466.0115      -975.74361     -836.20474      413.91383      0.00079968017  0.0008         0.00012578866 -0.003332846    0.00079968017  0.00012578075 -0.0033384123  -6.5188097      3.8396813     -13.615452      10.972263     -1.7499868      0.060076712    58.502152      57.359625      58.738559      1              197106.72      1.2177131      9429.6035      20626.492     -7705.2945      421.85585     -2832.7343      24921.934     -19946.447      2142.7533      4            
      4200   299.19101      24999.04       18781.081      43780.122      476.93461      986.88768      130.626        313.29015      0.0008396474   0.00084        0.0023121705  -0.0037119974   0.0008396474   0.0023095016  -0.0037189039   9.8501074     -19.033279      3.9089941      5.0924302      0.92780452    -1.5105438      58.504491      57.485019      58.716213      1              197470.36      1.2154707      9266.1837      20741.887     -7650.3966      411.62029     -2845.9382      25025.53      -19949.846      2229.7461      4.2          
      4400   298.7035       24756.576      18750.478      43507.054      595.74517      965.92576     -746.12733      1567.4371      0.00087961303  0.00088        0.0038208618  -0.0045023311   0.00087961303  0.0038135809  -0.0045124971  -3.9988959      23.441227      10.077781      1.8246962     -5.6536615     -18.409087      58.506829      57.571546      58.669635      1              197618.61      1.2145589      9450.4519      20592.869     -7896.7668      389.2812      -2833.3975      25000.631     -19946.493      2220.7406      4.4          
      4600   297.84875      25028.914      18696.824      43725.738      107.65972      59.795404     -348.64992      611.83367      0.00091957706  0.00092        0.0034516453  -0.0046960612   0.00091957706  0.0034457021  -0.0047071224   7.0593015      14.01468      -20.917858      12.265059      3.0938911     -1.7604791      58.509167      57.55037       58.658218      1              197515.37      1.2151937      9311.6544      20636.976     -7560.719       420.64745     -2894.0634      25060.582     -19946.163      2220.3557      4.6          
      4800   296.90354      25035.49       18637.49       43672.98       605.10722      763.45401      677.00958      374.85808      0.00095953949  0.00096        0.002861864   -0.0043567333   0.00095953949  0.0028577767  -0.0043662515   2.4259889     -13.191599     -6.5617412      22.134117     -9.5933684      2.0735328      58.511505      57.516545      58.678216      1              197474.47      1.2154454      9489.4518      20598.622     -7726.0971      424.26224     -2789.7846      24986.808     -19947.773      2249.2502      4.8          
      5000   298.81443      24976.21       18757.442      43733.653      254.15209     -289.01932      773.62916      277.84642      0.00099950033  0.001          0.002115449   -0.0041007117   0.00099950033  0.0021132146  -0.0041091426   19.135609      21.567968      23.13562       15.922972     -3.9122651     -15.669901      58.513843      57.473736      58.693305      1              197386.12      1.2159894      9381.1829      20672.24      -7699.3035      414.21907     -2822.1599      24978.469     -19948.437      2207.8715      5            
      5200   298.63483      24824.082      18746.168      43570.25      -745.10858     -1138.4641     -641.19538     -455.66623      0.0010394596   0.00104        0.00044826946 -0.0043993234   0.0010394596   0.00044816901 -0.0044090289  -4.5813976     -13.94263      -10.362644      7.2875791     -3.8600906     -3.6245544      58.516182      57.37812       58.675706      1              197006.53      1.2183324      9301.3796      20614.264     -7640.3734      401.5621      -2882.9096      24982.223     -19952.064      2147.2489      5.2          
      5400   297.13746      25007.04       18652.174      43659.214     -489.844       -736.59559     -1225.6183      492.68189      0.0010794172   0.00108       -5.3590139e-05 -0.0036847651   0.0010794172  -5.3591575e-05 -0.0036915705  -14.405579     -8.3471492     -14.487611      20.414192     -23.539227     -4.6372831      58.51852       57.349337      58.717818      1              197056.9       1.218021       9423.8378      20788.462     -7836.1733      397.60187     -2822.31        25002.592     -19946.97       2233.3122      5.4          
      5600   296.04093      24760.269      18583.342      43343.61       517.05352      681.9244       508.51591      360.72024      0.0011193733   0.00112       -0.0018384235  -0.0021865848   0.0011193733  -0.0018401155  -0.0021889788  -8.6012651      14.001017      4.6381187      15.365679     -13.471415     -5.7921302      58.520858      57.246972      58.806114      1              197008.83      1.2183182      9401.8775      20638.025     -7912.139       416.91498     -2813.4099      24976.086     -19947.086      2215.5904      5.6          
      5800   298.488        24848.049      18736.951      43585         -255.1715       109.94442      1112.1562     -1987.6151      0.0011593277   0.00116       -0.0036573866  -0.00093826418  0.0011593277  -0.0036640912  -0.00093870462 -4.8263294     -14.855744      11.482453      10.104428     -14.327989     -9.4282045      58.523196      57.14265       58.879683      1              196903.7       1.2189686      9351.8824      20713.525     -7839.7805      419.2328      -2840.106       24994.835     -19951.54       2203.189       5.8          
      6000   299.06367      24887.341      18773.088      43660.429     -920.3355      -959.90708     -1338.4032     -462.69617      0.0011992806   0.0012        -0.004200256    0.00032864384  0.0011992806  -0.0042091018   0.00032858985 -0.50449604    -11.437909     -0.2373198      2.2487207     -3.0675183     -4.165664       58.525535      57.111515      58.954349      1              197053.85      1.2180399      9365.6486      20694.809     -7762.7236      387.87521     -2830.9572      24980.317     -19947.628      2201.7313      6            
      6200   297.88804      24824.331      18699.29       43523.621      369.75407      1037.8686      77.084245     -5.690662       0.0012392318   0.00124       -0.0042944598   0.0013412938   0.0012392318  -0.0043037074   0.001340395    11.575996     -2.8296747      20.394077      2.6804117      2.9161594     -22.77628       58.527873      57.106113      59.014029      1              197242.55      1.2168746      9442.9651      20686.559     -7943.2985      395.16096     -2808.5909      24999.621     -19948.085      2242.9449      6.2          
      6400   300.07756      24895.169      18836.732      43731.901      219.96589      1128.8034     -682.25478      213.34902      0.0012791815   0.00128       -0.003044557    0.00089440946  0.0012791815  -0.0030492011   0.00089400971 -2.8415112     -35.44728      -2.1264283      5.6249869     -14.733437     -10.9107        58.530211      57.177798      58.987692      1              197409.89      1.215843       9399.9867      20686.696     -7809.6061      409.46028     -2795.2676      24953.747     -19949.847      2208.6324      6.4          
      6600   295.19498      25067.243      18530.239      43597.482     -385.89302     -689.93932     -11.620425     -456.1193       0.0013191296   0.00132       -0.00057685384 -0.00037661734  0.0013191296  -0.00057702029 -0.00037668828  7.0102625      19.477248      13.393024      9.3722007     -10.923302     -6.44279        58.532549      57.319326      58.912784      1              197655.12      1.2143346      9386.8446      20850.371     -7778.7443      418.12032     -2833.1028      24973.919     -19950.165      2190.6514      6.6          
      6800   295.91238      25035.155      18575.272      43610.427      300.35839      692.14138     -588.13447      797.06827      0.001359076    0.00136        0.00082674105 -0.00379934     0.001359076    0.00082639949 -0.0038065758   10.927322      16.838322      5.9627215      5.1541578     -11.880323     -3.9717322      58.534887      57.399826      58.711066      1              197262.86      1.2167493      9485.7936      20782.455     -7912.6671      407.74839     -2787.7913      25013.019     -19953.403      2271.8253      6.8          
      7000   296.90753      24911.747      18637.741      43549.488     -614.19053     -1797.8004     -710.19174      665.42052      0.0013990209   0.0014         0.00066670518 -0.0053153992   0.0013990209   0.00066648304 -0.0053295762  -7.8617523      9.5840778     -33.482461      16.800819     -11.562614     -12.61207       58.537226      57.390647      58.621717      1              196939.03      1.21875        9296.6144      20639.767     -7672.3011      401.54157     -2847.4052      25039.773     -19946.242      2246.1253      7            
      7200   297.55628      24899.32       18678.464      43577.784      67.988715     -1258.9974      657.84695      805.11658      0.0014389642   0.00144        0.00010536607 -0.0043889195   0.0014389642   0.00010536052 -0.004398579   -2.0196387      11.209887     -0.25452329     2.7648148     -1.1213484     -5.7141137      58.539564      57.358453      58.676319      1              197019.76      1.2182506      9322.0326      20813.784     -7707.7679      418.57674     -2971.3519      24972.361     -19948.315      2052.694       7.2          
      7400   295.79857      24866.155      18568.128      43434.283      148.00584      343.34263      59.80338       40.871519      0.0014789059   0.00148       -0.0012784281  -0.0040998912   0.0014789059  -0.0012792459  -0.0041083188  -2.8846089      1.3329971     -0.68873498    -6.3307867     -5.6091391     -8.996156       58.541902      57.279089      58.693353      1              196812.13      1.2195358      9351.9401      20656.156     -7712.7296      398.70649     -2873.1536      24997.582     -19952.345      2172.0824      7.4          
      7600   299.09532      24769.306      18775.074      43544.38       490.4942       830.22408      523.59098      117.66754      0.001518846    0.00152       -0.0016660033  -0.0043475726   0.001518846   -0.0016673926  -0.0043570508  -19.744655     -29.233221      5.6452194      4.5967177     -2.9306171     -8.0384787      58.54424       57.256861      58.678756      1              196694.68      1.220264       9465.0819      20733.471     -8002.8707      394.35266     -2858.6386      24984.67      -19946.76       2179.2711      7.6          
      7800   299.61063      25154.547      18807.422      43961.969      130.52596     -42.143612     -264.11997      697.84147      0.0015587845   0.00156       -0.00092968563 -0.0048111957   0.0015587845  -0.00093011805 -0.0048228067  -11.935758      8.6468076     -0.98533877    -3.174129      -9.8361104     -21.576134      58.546579      57.299091      58.651432      1              196755.95      1.219884       9403.4158      20939.696     -7753.1887      410.38971     -2915.9925      25019.521     -19949.294      2154.2349      7.8          
      8000   299.45002      24946.384      18797.34       43743.724     -32.732951     -625.47846     -328.53179      855.8114       0.0015987214   0.0016        -7.376838e-06  -0.0037666946   0.0015987214  -7.3768652e-06 -0.0037738064  -9.2150228     -14.28459      -30.321003      9.4761409     -5.8830643     -10.103544      58.548917      57.351987      58.71299       1              197152.16      1.2174325      9456.8589      20680.761     -7743.8218      398.46258     -2905.1119      25012.168     -19952.933      2154.1226      8            
      8200   299.91172      24905.784      18826.322      43732.106     -672.13054     -785.93236     -406.44731     -824.01195      0.0016386567   0.00164        0.0012815246  -0.0024534578   0.0016386567   0.0012807041  -0.0024564724   46.006502      21.247199      48.600646      0.80162343    -10.324112     -19.938947      58.551255      57.425909      58.790385      1              197674.38      1.2142162      9264.263       20660.273     -7526.2667      408.46452     -2918.0106      24968.795     -19951.734      2099.0498      8.2          
      8400   298.21474      24759.289      18719.798      43479.086     -633.44271     -1458.8537     -289.6412      -151.83328      0.0016785904   0.00168        0.0010404589  -0.0042172363   0.0016785904   0.001039918   -0.0042261539   21.327931      1.7309654      19.819745      8.5691234     -3.9431006     -9.298418       58.553593      57.412083      58.686437      1              197285.24      1.2166112      9298.6337      20663.218     -7766.492       398.39036     -2856.4124      24970.022     -19948.072      2165.5382      8.4          
      8600   299.90888      24674.641      18826.144      43500.785      786.56068      108.55704      1173.6153      1077.5097      0.0017185225   0.00172        0.0011589031  -0.00660036     0.0017185225   0.0011582321  -0.0066222387  -2.0698049     -3.2881399     -19.797285      16.873633      11.60882       1.1978625      58.555931      57.418876      58.545988      1              196844.24      1.2193368      9332.8976      20700.141     -7959.9173      417.84224     -2821.8169      24956.016     -19950.521      2183.6772      8.6          
      8800   300.61632      24871.113      18870.552      43741.665      13.093325      396.25277     -1036.3518      679.37899      0.001758453    0.00176        0.0023436338  -0.0069694747   0.001758453    0.0023408918  -0.0069938749  -5.1904441     -16.329253     -25.665837      5.1473706     -15.908682     -12.440315      58.55827       57.486823      58.524234      1              197011.82      1.2182997      9416.3845      20742.705     -7878.4965      404.7996      -2836.9041      24973.459     -19950.834      2185.7206      8.8          
      9000   295.76109      24940.247      18565.775      43506.022      182.51838      909.69291      249.45569     -611.59347      0.0017983819   0.0018         0.0044610958  -0.0055859601   0.0017983819   0.0044511746  -0.0056016199  -12.604956      6.3605108     -9.1240831      2.9939552     -14.093048     -11.071859      58.560608      57.608265      58.605771      1              197710.97      1.2139915      9341.0298      20860.957     -7898.0813      408.85217     -2811.4452      24988.434     -19949.499      2227.4895      9            
      9200   297.95607      25092.203      18703.561      43795.764      696.98845      2007.2931      63.07424       20.597984      0.0018383093   0.00184        0.0056504571  -0.0047030166   0.0018383093   0.0056345532  -0.0047141105   2.7702362      9.5454681      17.102226      4.9146714     -7.5690009     -4.8782668      58.562946      57.676478      58.657808      1              198128.74      1.2114317      9397.2184      20842.617     -7816.9259      411.39321     -2829.7676      25035.803     -19948.134      2257.9009      9.2          
      9400   295.2132       25070.947      18531.382      43602.33       487.12961      611.39365      240.93495      609.06023      0.001878235    0.00188        0.0044260797  -0.005883337    0.001878235    0.0044163135  -0.005900712    22.733527      23.236165      31.300721      20.01545       2.456718      -11.544203      58.565284      57.606257      58.588246      1              197660.73      1.2143001      9465.6978      20692.257     -7699.419       413.6334      -2821.0836      24968.474     -19948.613      2198.7781      9.4          
      9600   298.73911      24737.728      18752.714      43490.442      1000.9151      1115.007       72.297997      1815.4405      0.0019181592   0.00192        0.0018508654  -0.0083877888   0.0019181592   0.0018491546  -0.0084231642  -16.149529      0.15486981    -25.166014      12.042108     -4.9774403     -8.8574593      58.567622      57.458562      58.440646      1              196665.12      1.2204474      9417.7866      20626.777     -7937.9659      404.65909     -2827.5679      25005.143     -19951.104      2226.4707      9.6          
      9800   297.42284      24847.877      18670.088      43517.965     -19.432803      1123.0498     -780.69042     -400.65777      0.0019580817   0.00196        0.00025329051 -0.0081857529   0.0019580817   0.00025325844 -0.0082194401  -30.48148      -10.497918     -33.373741      2.8640957     -12.676322     -9.9967993      58.569961      57.366937      58.452553      1              196399.36      1.2220989      9327.8311      20690.159     -7721.3088      415.45458     -2901.4818      24988.024     -19950.801      2135.7415      9.8          
     10000   298.1898       24997.024      18718.232      43715.256     -844.75709     -1606.0457     -1050.3828      122.15721      0.0019980027   0.002          0.00011894094 -0.0056620542   0.0019980027   0.00011893387 -0.0056781444   4.4398922     -2.2596743     -18.61349       14.370285     -10.857071     -13.219885      58.572299      57.359232      58.601287      1              196880.52      1.2191122      9396.6109      20726.5       -7653.1542      409.54704     -2967.5102      25038.615     -19953.584      2117.5201      10           
     10200   296.07035      25025.77       18585.188      43610.958     -941.99632     -1195.9594     -1141.451      -488.57862      0.002037922    0.00204       -0.00012892226 -0.0033380115   0.002037922   -0.00012893058 -0.0033435951   3.8289719     -3.1090004      9.8522346      15.097307      9.8363171     -25.436359      58.574637      57.345016      58.738254      1              197299.65      1.2165224      9422.8806      20656.979     -7583.1537      414.31541     -2937.9473      25002.093     -19949.396      2114.7493      10.2         
     10400   299.30537      24861.768      18788.26       43650.028     -309.02762      118.09115     -606.45471     -438.71929      0.0020778398   0.00208       -0.0010467314  -0.0035633572   0.0020778398  -0.0010472796  -0.003569721    13.944333      14.092653      14.624471      13.863564     -4.0237276     -5.5962789      58.576975      57.292378      58.724974      1              197081.84      1.2178668      9451.6881      20559.896     -7746.3885      405.79703     -2891.4827      25030.451     -19948.193      2190.7755      10.4         
     10600   300.32015      24815.361      18851.961      43667.321     -959.38832     -854.6275      -1143.8186     -879.71887      0.002117756    0.00212       -0.0024224041  -0.0036520143   0.002117756   -0.0024253429  -0.0036586992   3.2792787      6.5680064     -10.147715      11.110646     -19.094011     -10.868672      58.579314      57.21348       58.719749      1              196800.79      1.2196061      9424.3107      20554.309     -7724.0242      409.37801     -2868.733       24967.672     -19947.551      2151.3873      10.6         
     10800   297.30575      24949.006      18662.738      43611.744     -858.08959     -1207.9796     -1012.8315     -353.4577       0.0021576706   0.00216       -0.0027609966  -0.002675564    0.0021576706  -0.0027648152  -0.0026791497  -13.47626      -22.274918     -10.262167      11.831285     -12.767721     -7.8319505      58.581652      57.19406       58.777296      1              196934.65      1.2187771      9477.2078      20595.994     -7754.592       414.19381     -2826.5352      24989.268     -19946.53       2216.2029      10.8         
     11000   296.579        25052.919      18617.117      43670.036     -544.03031     -848.09926      278.20201     -1062.1937      0.0021975835   0.0022        -0.0015284819  -0.0019743629   0.0021975835  -0.0015296513  -0.0019763145  -25.953788     -5.0406239      13.596109      12.240187     -11.927294     -6.12979        58.58399       57.264748      58.818621      1              197324.56      1.2163688      9415.6707      20709.079     -7653.5197      430.83024     -2887.1419      24985.574     -19947.574      2150.8582      11           
     11200   297.24871      24852.552      18659.157      43511.709     -452.98453      96.063835     -745.33983     -709.6776       0.0022374949   0.00224       -0.0003138239  -0.0021457218   0.0022374949  -0.00031387316 -0.0021480271   8.188794       5.6231259      5.8964738      15.230742     -10.270722     -17.981098      58.586328      57.334412      58.808522      1              197538.57      1.215051       9339.6921      20714.001     -7759.6183      413.77449     -2914.2467      25005.173     -19946.224      2144.7028      11.2         
     11400   296.13407      24976.372      18589.188      43565.56       687.47661      1198.7359     -38.934264      902.62818      0.0022774047   0.00228       -0.0003014403  -0.0032238694   0.0022774047  -0.00030148575 -0.0032290773  -0.39275119     4.6651514      9.8725903      12.976144     -8.3692889     -9.9475992      58.588666      57.335122      58.744981      1              197335.46      1.2163016      9415.7795      20822.464     -7989.519       403.81157     -2779.8831      25052.335     -19948.616      2323.8366      11.4         
     11600   299.81021      24953.452      18819.95       43773.401     -981.61773     -981.9228      -632.208       -1330.7224      0.002317313    0.00232       -0.00029014477 -0.0045259591   0.002317313   -0.00029018687 -0.0045362322  -1.7666306      7.3062962     -5.7293077      6.8572586     -7.6542354     -27.021185      58.591005      57.33577       58.668243      1              197087.77      1.2178302      9297.785       20622.227     -7502.0222      413.43735     -2881.139       24952.925     -19949.761      2122.0248      11.6         
     11800   297.26572      24838.381      18660.225      43498.607      634.34148      617.54472      844.79551      440.68421      0.0023572196   0.00236       -0.00074071805 -0.0055908516   0.0023572196  -0.00074099252 -0.0056065389   15.955147      1.8465311      0.5765701      16.555113     -16.803912     -12.880462      58.593343      57.309928      58.605483      1              196796.06      1.2196354      9467.1591      20695.996     -7976.7876      408.3555      -2782.6459      24979.085     -19952.781      2243.6585      11.8         
     12000   298.37532      24941.385      18729.878      43671.263     -934.8513      -248.33896     -1854.223      -701.99191      0.0023971246   0.0024        -0.00150451    -0.0051906195   0.0023971246  -0.0015056429  -0.0052041375  -19.889939      1.6507168     -25.146521      20.329546     -14.307342      6.3777937      58.595681      57.266123      58.629071      1              196732.63      1.2200286      9300.6443      20716.708     -7635.7461      419.00078     -2877.0593      24967.285     -19949.447      2140.7787      12           
     12200   297.53721      24755.96       18677.267      43433.227     -574.74821     -1518.7688      402.36535     -607.84117      0.002437028    0.00244       -0.0012121642  -0.0037195249   0.002437028   -0.0012128995  -0.0037264595  -3.1415266     -26.299743     -0.72065727     14.660405     -5.2401568     -3.0200523      58.598019      57.28289       58.71577       1              197089.1       1.217822       9218.4107      20489.721     -7551.6717      414.58775     -2870.111       25000.355     -19945.332      2184.9123      12.2         
     12400   301.35899      24749.104      18917.172      43666.276      1334.7576      484.61956      2168.632       1351.0213      0.0024769299   0.00248       -0.00030789424 -0.0019341563   0.0024769299  -0.00030794165 -0.0019360292   41.915428      22.284217      11.234082      6.6449369      0.83282975    -23.959038      58.600357      57.334752      58.82099       1              197628.94      1.2144954      9375.5061      20701.872     -7967.2121      408.73915     -2826.7525      25008.199     -19951.248      2230.199       12.4         
     12600   298.91808      24820.242      18763.949      43584.191      566.5384       800.90508      1223.8837     -325.17355      0.0025168301   0.00252       -0.001212338   -0.001379058    0.0025168301  -0.0012130734  -0.0013800097   30.420625      13.557462      3.674605       11.644404      7.262852      -10.7229        58.602696      57.28288       58.853705      1              197567.84      1.214871       9346.6706      20531.659     -7689.5725      405.4988      -2832.17        25008.913     -19950.757      2225.9859      12.6         
     12800   299.13055      24828.398      18777.286      43605.684     -1.3005593      319.78057      97.711705     -421.39396      0.0025567288   0.00256       -0.0025886577  -0.0013807845   0.0025567288  -0.002592014   -0.0013817387   12.213993     -6.7018228      5.1436201      20.497918     -18.312096     -8.4072477      58.605034      57.203945      58.853603      1              197303.12      1.216501       9342.3101      20640.331     -7727.2055      401.7803      -2860.4821      24983.51      -19951.845      2171.1822      12.8         
     13000   297.18071      24987.663      18654.889      43642.552     -1092.4229     -1780.4162     -768.11835     -728.734        0.0025966258   0.0026        -0.0040700595  -0.0018512055   0.0025966258  -0.0040783647  -0.0018529211   8.9733033     -3.6331718      10.126415      11.89932      -6.6671539     -18.776389      58.607372      57.118983      58.825879      1              196925.13      1.218836       9229.4526      20817.375     -7630.0894      397.07672     -2885.0962      25005.637     -19946.692      2173.8486      13           
     13200   295.63933      24763.722      18558.132      43321.854      768.64536      408.79656      1124.1307      773.00882      0.0026365213   0.00264       -0.0043077383  -0.0027148935   0.0026365213  -0.0043170434  -0.0027185855  -7.5837549     -14.740708     -4.1034142      16.77276      -6.3566031     -14.314197      58.60971       57.105351      58.774978      1              196715.62      1.2201341      9295.2298      20776.567     -7863.2535      389.33462     -2961.1389      25080.328     -19953.345      2165.8442      13.2         
     13400   299.15366      25164.917      18778.737      43943.654     -91.633267      137.90143     -132.14037     -280.66087      0.0026764152   0.00268       -0.0028210608  -0.0033175709   0.0026764152  -0.0028250475  -0.0033230862   22.62336      -26.634735     -15.006645      18.403721      0.36384694    -8.9797447      58.612049      57.190616      58.739459      1              196898.14      1.2190031      9444.3671      20831.201     -7720.4808      422.04732     -2844.1283      24982.914     -19951.003      2187.7823      13.4         
     13600   299.02679      24928.842      18770.772      43699.614      234.4115      -48.810856      704.83412      47.211245      0.0027163075   0.00272        0.00034038834 -0.0024905866   0.0027163075   0.00034033042 -0.0024936933   18.500653      9.3899959     -12.768791      22.396616     -8.3644676     -19.573937      58.614387      57.371932      58.788197      1              197694.16      1.2140947      9394.5335      20641.894     -7756.6092      406.28267     -2823.489       25012.755     -19946.526      2242.7408      13.6         
     13800   299.00416      24756.39       18769.352      43525.742      722.83799      519.04266      19.89717       1629.5741      0.0027561982   0.00276        0.0024994787  -0.0026996105   0.0027561982   0.0024963602  -0.002703261    22.806959      15.403307      34.227617      19.958607     -4.0153793     -6.7064803      58.616725      57.495761      58.775878      1              198087.24      1.2116855      9358.2248      20784.942     -8017.4711      410.46337     -2777.8008      24946.39      -19948.358      2220.2308      13.8         
     14000   296.80466      25200.788      18631.283      43832.071     -1453.2303     -1978.9586     -1249.079      -1131.6531      0.0027960873   0.0028         0.0034592754  -0.0045163586   0.0027960873   0.0034533059  -0.0045265882   23.753461      22.052249      2.7338684      19.455043      3.6963212     -27.379678      58.619063      57.550808      58.668808      1              197923.59      1.2126874      9266.1834      20803.403     -7513.4705      408.82982     -2844.7465      25028.108     -19947.52       2235.8422      14           
     14200   297.25973      24719.185      18659.849      43379.034      257.14941      1007.3842      982.13202     -1218.068       0.0028359748   0.00284        0.002442031   -0.0057639772   0.0028359748   0.0024390541  -0.005780653    9.1976415      4.9822373     -6.5308391      13.773565     -15.613062     -21.555362      58.621401      57.492467      58.59528       1              197483.03      1.2153928      9231.9628      20794.896     -7927.6469      411.78979     -2860.1553      25016.712     -19948.374      2208.1834      14.2         
     14400   299.42732      24958.06       18795.915      43753.975     -129.65441      706.21196     -360.7748      -734.40039      0.0028758607   0.00288        0.00070044695 -0.0056397603   0.0028758607   0.00070020176 -0.0056557238   6.9572786      4.0456154     -34.228738      6.6752672      0.68574227     1.2100003      58.62374       57.392583      58.602601      1              197172.42      1.2173073      9399.6866      20824.293     -7932.0873      387.52477     -2810.0351      25038.066     -19949.388      2278.6433      14.4         
     14600   299.67981      24735.702      18811.764      43547.466      201.47735      74.856063      1023.1694     -493.59339      0.0029157451   0.00292       -0.0011010371  -0.0041396218   0.0029157451  -0.0011016437  -0.0041482138  -11.496916      1.8928071     -1.2152356      8.80564       -8.0140547     -17.650144      58.626078      57.289263      58.691011      1              197122.26      1.2176171      9343.6142      20663.879     -7921.4946      406.10433     -2799.2866      24995.016     -19952.131      2243.5987      14.6         
     14800   297.42791      24900.771      18670.406      43571.177     -330.82137     -993.51199      931.54331     -930.49542      0.0029556278   0.00296       -0.0015820815  -0.0019788949   0.0029556278  -0.0015833344  -0.0019808555   28.33582      -31.648628      4.7340636      5.0665483      2.6005495     -7.1034313      58.628416      57.261674      58.818354      1              197462.7       1.2155179      9559.2753      20623.203     -7795.8355      412.676       -2893.3649      24944.705     -19949.889      2101.4519      14.8         
     15000   294.10187      24998.689      18461.621      43460.31      -776.59274     -612.70329     -248.68349     -1468.3914      0.002995509    0.003         -0.0006777111  -0.0011128321   0.002995509   -0.00067794085 -0.0011134518   35.892892      5.5001518      11.576718      16.115796     -2.2045329     -14.179888      58.630754      57.313542      58.869395      1              197820.96      1.2133165      9491.3147      20602.928     -7761.9593      396.7538      -2804.0387      25023.072     -19949.382      2269.6512      15           
     15200   294.50427      25018.585      18486.881      43505.466     -28.335647     -1258.3573      1206.3619     -33.011463      0.0030353885   0.00304       -0.00049943668 -0.0015991619   0.0030353885  -0.00049956144 -0.0016004419   21.014356      5.5658233      25.293375      14.943309      3.5405208     -7.2886546      58.633092      57.323766      58.840733      1              197767.81      1.2136426      9546.507       20719.343     -7937.507       430.49474     -2797.4662      25003.39      -19946.177      2259.7469      15.2         
     15400   300.86661      24816.453      18886.263      43702.717      285.10851      1641.4968      1016.182      -1802.3533      0.0030752665   0.00308       -0.00097104483 -0.0039805256   0.0030752665  -0.0009715166  -0.003988469    9.9759052      5.615002      -2.1241791      1.5633187      6.895712      -1.9947369      58.635431      57.296719      58.700388      1              197210.87      1.2170701      9312.07        20784.447     -7991.5228      405.81879     -2755.5892      25009.164     -19947.934      2305.6405      15.4         
     15600   297.66446      24891.583      18685.255      43576.838     -252.10709     -96.080801      158.18454     -818.425        0.0031151429   0.00312        0.00019351438 -0.0056326227   0.0031151429   0.00019349566 -0.0056485457  -1.2408762     -34.295288     -26.246623      10.855763      9.8828253     -12.790921      58.637769      57.363509      58.603021      1              197121.12      1.2176242      9373.129       20732.781     -7774.146       398.56881     -2868.1388      24974.731     -19945.343      2161.2497      15.6         
     15800   296.20736      24913.451      18593.789      43507.24       347.00641      112.32177      644.9011       283.79637      0.0031550177   0.00316        0.0028027887  -0.0054660185   0.0031550177   0.0027988682  -0.0054810118   27.98737       22.018155     -4.6700534      29.388205     -17.086712      3.3497286      58.640107      57.513157      58.61284       1              197676.36      1.2142041      9453.6012      20799.105     -7960.7334      407.84897     -2847.1459      25006.892     -19946.117      2213.6299      15.8         
     16000   297.11787      24864.176      18650.944      43515.12      -122.67038     -214.90129      929.81366     -1082.9235      0.0031948909   0.0032         0.0036896266  -0.0047130811   0.0031948909   0.0036828366  -0.0047242227   6.5177688      21.662138     -15.953503      14.041052     -10.454363     -11.910166      58.642445      57.564019      58.657215      1              198008.86      1.2121652      9209.2316      20762.864     -7748.6874      422.2603      -2820.52        24988.79      -19949.763      2218.5073      16           
     16200   300.69414      24671.135      18875.437      43546.572      630.11882      993.90885      1928.7524     -1032.3048      0.0032347625   0.00324        0.0034130053  -0.0031265598   0.0032347625   0.0034071942  -0.0031314577   12.995639      8.516981       9.4937368      7.6094061     -8.006463      -14.710806      58.644784      57.548154      58.750716      1              198277.74      1.2105214      9252.2367      20617.075     -7914.7993      421.66201     -2793.0621      25035.666     -19947.643      2294.9611      16.2         
     16400   299.7988       25194.034      18819.234      44013.267     -1209.0098     -1888.1418     -617.298       -1121.5898      0.0032746325   0.00328        0.00055304411 -0.0022558522   0.0032746325   0.00055289123 -0.0022584005   40.318715      32.902485      11.211195      14.258435      0.10231346    -22.79435       58.647122      57.384129      58.802031      1              197893.18      1.2128737      9389.376       20796.747     -7704.0946      418.46258     -2788.6633      25031.914     -19949.708      2293.5427      16.4         
     16600   297.4021       24873.269      18668.786      43542.055      1222.4039      811.56487      1291.2958      1564.351       0.003314501    0.00332       -0.0032308426  -0.0019514682   0.003314501   -0.0032360731  -0.0019533747   19.546465     -25.601807      3.3117687      19.563479      1.7925419     -5.6292265      58.64946       57.167114      58.81997       1              197212.79      1.2170582      9427.7385      20852.019     -8033.6238      401.45543     -2865.458       25044.315     -19953.178      2225.6794      16.6         
     16800   299.00839      24762.846      18769.618      43532.464      380.7106       528.09681      400.6837       213.35127      0.0033543678   0.00336       -0.0041858097  -0.00034224251  0.0033543678  -0.0041945947  -0.00034230109  4.2427511     -23.577436     -21.206624      6.7714283      3.4618536      1.6712198      58.651798      57.112344      58.91481       1              197349.39      1.2162157      9237.5459      20732.575     -7890.5896      400.51182     -2826.4178      25063.743     -19954.522      2282.8032      16.8         
     17000   295.67505      24925.958      18560.374      43486.332      87.856466      729.25123     -767.77311      302.09128      0.0033942331   0.0034        -0.0033679646   0.0011591595   0.0033942331  -0.0033736489   0.0011584881   5.4894571     -10.764466      11.283518      10.941594      5.7070786     -24.842599      58.654136      57.159249      59.003295      1              197816.01      1.2133469      9398.6669      20793.158     -7822.8865      393.60861     -2868.4772      24983.082     -19951.195      2163.4102      17           
     17200   299.08203      25114.467      18774.24       43888.707     -746.75657      158.59305     -1235.5909     -1163.2718      0.0034340967   0.00344       -0.0030282915   0.00045666101  0.0034340967  -0.0030328861   0.00045655677  30.28119       4.3062282      33.980524      17.131539     -1.0361354     -29.280347      58.656475      57.17873       58.961893      1              197752.46      1.2137368      9436.1836      20711.46      -7544.5721      397.2554      -2951.005       25011.292     -19946.147      2114.1406      17.2         
     17400   298.74657      24844.396      18753.182      43597.578      1309.6045      1434.7274      738.01508      1756.0711      0.0034739588   0.00348       -0.0028017567  -0.0014087055   0.0034739588  -0.0028056889  -0.0014096986  -4.4054473     -21.927344     -1.2616564     -1.735829      -15.610569     -6.3854241      58.658813      57.191723      58.851958      1              197436.46      1.2156794      9278.3089      20861.102     -7934.5412      415.64814     -2818.3122      24990.885     -19948.695      2223.8781      17.4         
     17600   295.80167      24966.777      18568.322      43535.099      651.48628      550.94893      121.46215      1282.0477      0.0035138193   0.00352       -0.00052873572 -0.0032221498   0.0035138193  -0.00052887555 -0.0032273521   0.69264735    -15.677247      7.0123003      19.917395     -8.0965505     -9.5122011      58.661151      57.322086      58.745083      1              197535.01      1.2150729      9396.5908      20760.944     -7836.5989      423.05934     -2842.7457      25016.135     -19950.608      2222.7816      17.6         
     17800   297.92712      24871.93       18701.743      43573.673     -565.2226      -642.29513     -124.22137     -929.15129      0.0035536782   0.00356        0.0014962284  -0.0048111547   0.0035536782   0.0014951102  -0.0048227656  -9.7471874      12.455393     -14.382478      17.334687      4.1817276     -15.726604      58.663489      57.438223      58.651435      1              197627.57      1.2145038      9135.759       20773.299     -7663.6724      418.73594     -2836.9251      24996.561     -19951.827      2207.8086      17.8         
     18000   297.34751      24803.298      18665.359      43468.657     -420.26831     -897.30972     -618.25204      254.75683      0.0035935355   0.0036         0.0011532583  -0.0046234615   0.0035935355   0.0011525938  -0.0046341828   48.888321      30.199037     -8.4397088      25.749706      6.6291721     -6.5595766      58.665828      57.418552      58.662496      1              197605.02      1.2146424      9215.4907      20737.383     -7692.706       416.51369     -2868.5884      24948.377     -19953.172      2126.616       18           
     18200   297.89351      25099.844      18699.633      43799.477     -448.48509     -576.68115     -1234.0561      465.28199      0.0036333912   0.00364        0.00018640095 -0.0044238928   0.0036333912   0.00018638357 -0.0044337072   16.193701     -2.7730017      7.4179402      11.634554      15.262977     -16.410005      58.668166      57.363101      58.674258      1              197461.64      1.2155244      9226.5613      20890.825     -7570.7742      418.40311     -2917.8827      25001.57      -19948.858      2134.8291      18.2         
     18400   298.30084      24819.955      18725.202      43545.157     -194.84934      29.710645     -516.35687     -97.901797      0.0036732454   0.00368       -0.0011279821  -0.0043828649   0.0036732454  -0.0011286188  -0.0043924978   20.071072     -3.5912211     -5.2471023      5.7045984     -18.230678     -5.5609411      58.670504      57.287718      58.676676      1              197218.13      1.2170252      9199.5329      20764.738     -7752.5726      395.72886     -2856.9875      25018.294     -19948.779      2212.5278      18.4         
     18600   296.68216      24950.187      18623.593      43573.78       333.03443      275.57904      635.815        87.709243      0.0037130979   0.00372       -0.0010486679  -0.0047552446   0.0037130979  -0.0010492182  -0.0047665868   2.4303938     -12.026576      21.59349       16.306024     -3.8463126     -24.461684      58.672842      57.292267      58.65473       1              197167.88      1.2173354      9287.3499      20865.262     -7818.1623      402.74874     -2868.3584      25027.286     -19945.939      2212.9886      18.6         
     18800   295.99121      24867.573      18580.22       43447.794      19.612623      584.30026     -707.1628       181.70041      0.0037529489   0.00376        0.0012754152  -0.0061765698   0.0037529489   0.0012746026  -0.0061957237   2.3763263     -24.065368     -3.1196208      19.964441      2.4311019     -13.031862      58.67518       57.425558      58.570964      1              197352.23      1.2161983      9417.8881      20796.374     -7968.3874      386.66787     -2812.4236      24997.641     -19950.187      2235.0304      18.8         
     19000   297.30201      24827.106      18662.503      43489.609      1367.3741      2089.3373      1709.8439      302.9411       0.0037927982   0.0038         0.002540567   -0.0066955437   0.0037927982   0.0025373453  -0.0067180594  -5.4508802      14.102042     -15.923427      14.88577       4.5887151      0.91643753     58.677519      57.498118      58.540378      1              197506.27      1.2152497      9379.0669      20638.275     -7995.7752      418.38987     -2692.6837      25026.797     -19946.963      2387.1497      19           
     19200   302.52373      25018.92       18990.285      44009.205      866.5127       1072.1608      1731.9744     -204.59704      0.003832646    0.00384        0.0032032621  -0.0063398332   0.003832646    0.0031981426  -0.0063600153  -6.4900973      11.992866     -2.9929664      21.086786     -10.716788      0.20593198     58.679857      57.536125      58.561342      1              197715.48      1.2139638      9405.0441      20758.935     -7726.509       411.42987     -2899.1679      25014.418     -19945.231      2170.0199      19.2         
     19400   299.5166       25028.311      18801.519      43829.831     -241.04225      34.542387      1076.5998     -1834.269       0.0038724922   0.00388        0.0031046677  -0.0069574273   0.0038724922   0.0030998582  -0.006981743    29.906393      1.9539772      17.908446      6.7438821     -3.7037608     -23.94787       58.682195      57.53047       58.524944      1              197581.05      1.2147898      9341.2235      20758.17      -7778.8582      411.09445     -2723.9258      24971.002     -19950.395      2296.6813      19.4         
     19600   298.43354      24842.112      18733.532      43575.645      161.03926      139.1694       464.83846     -120.89009      0.0039123368   0.00392        0.0025804335  -0.0079092679   0.0039123368   0.0025771099  -0.0079407121  -4.4504161     -4.9107383     -3.388129       8.2876946      5.9912486     -8.6814474      58.684533      57.500404      58.468847      1              197296.37      1.2165426      9340.1235      20706.176     -7914.4913      405.85168     -2757.7176      25010.159     -19947.988      2304.4526      19.6         
     19800   294.95277      25109.24       18515.034      43624.274      46.285475      494.40614      127.84379     -483.3935       0.0039521798   0.00396        0.0033510129  -0.007426512    0.0039521798   0.0033454108  -0.0074542258   9.8322879     -11.643308     -19.75         -3.6331555     -12.188105     -5.8857101      58.686871      57.544599      58.497299      1              197551.96      1.2149687      9316.1022      20831.943     -7695.6919      419.13622     -2842.3202      25028.653     -19948.582      2237.7506      19.8         
     20000   296.4199       24682.242      18607.131      43289.373      810.31746      1081.9896      1184.5737      164.38906      0.0039920213   0.004          0.0034587242  -0.0075038761   0.0039920213   0.0034527565  -0.0075321718   26.881027      24.324123      14.509976      14.809341      0.57010041    -20.834498      58.68921       57.550776      58.492739      1              197565.64      1.2148846      9251.9807      20636.596     -7875.7086      402.05382     -2801.8321      25018.167     -19949.015      2267.3201      20           
     20200   299.38528      24868.638      18793.276      43661.913      261.31638     -658.71351      1749.7795     -307.11684      0.0040318611   0.00404        0.0027301     -0.007334627    0.0040318611   0.00272638    -0.0073616577  -3.2832931      10.989749      2.1085902      20.802952     -12.854336     -7.3625706      58.691548      57.508988      58.502714      1              197463.71      1.2155116      9279.0779      20852.472     -7843.7388      388.05093     -2859.1576      25000.066     -19948.132      2192.7762      20.2         
     20400   297.92016      25042.075      18701.306      43743.381      1039.1693      1072.3288      469.05632      1576.1228      0.0040716994   0.00408        0.0014483915  -0.0075306507   0.0040716994   0.0014473436  -0.0075591492   1.0399429     -20.268176     -19.978022      14.615272      2.3825007     -21.339825      58.693886      57.435479      58.491161      1              197180.22      1.2172592      9389.9116      20825.608     -7846.7416      407.10089     -2780.8453      24997.068     -19950.027      2266.1956      20.4         
     20600   298.93372      24920.268      18764.93       43685.199      517.12449      472.4266       1216.184      -137.23718      0.004111536    0.00412        0.0011980862  -0.006364035    0.004111536    0.0011973691  -0.0063843718  -22.087815      0.93774501     0.80347498     9.3172796      3.6005917     -4.1534154      58.696224      57.421123      58.559916      1              197370.52      1.2160855      9261.0774      20704.294     -7675.7468      404.03191     -2784.5125      24958.757     -19947.633      2226.6123      20.6         
     20800   296.73864      25047.397      18627.139      43674.536      510.25208      51.392428      1088.8871      390.47668      0.0041513711   0.00416        0.0012476012  -0.0057364893   0.0041513711   0.0012468236  -0.0057530061   10.556497     -5.9047441      22.111388      8.4053788     -4.616542      -4.7161137      58.698563      57.423963      58.5969        1              197512.81      1.2152095      9298.3123      20795.265     -7709.0127      403.0608      -2794.0654      25003.314     -19949.477      2259.7716      20.8         
     21000   300.0777       24863.605      18836.741      43700.347      575.39803      1193.7393      117.38221      415.07256      0.0041912046   0.0042         0.0014114003  -0.0061568285   0.0041912046   0.0014104052  -0.0061758599   18.887581     -4.0528566     -3.3341891      27.228653      3.5174976     -13.72026       58.700901      57.433358      58.572127      1              197469.47      1.2154762      9297.8238      20759.979     -7878.1732      405.72343     -2827.9952      25055.108     -19948.86       2278.2528      21           
     21200   297.04523      25018.556      18646.385      43664.941     -100.58916     -171.86069      187.09856     -317.00535      0.0042310365   0.00424        0.0014734573  -0.0071474583   0.0042310365   0.0014723728  -0.0071731238   32.775238      2.0929522      6.4310228      4.2398165     -2.1778822     -9.0198369      58.703239      57.436917      58.513745      1              197292.73      1.2165651      9369.7305      20758.614     -7758.322       401.78506     -2809.4364      24999.442     -19943.258      2246.748       21.2         
     21400   300.88706      24495.164      18887.547      43382.711      1203.4724      1551.1612      1623.5699      435.68602      0.0042708669   0.00428        0.0019752665  -0.0089452741   0.0042708669   0.0019733182  -0.0089855233   7.8404827      4.7165936      6.8490109      4.1230914      10.312996     -1.1174667      58.705577      57.465697      58.40779       1              197042         1.2181131      9304.918       20629.514     -8035.046       398.67639     -2874.4324      25018.924     -19947.39       2197.1009      21.4         
     21600   295.85179      24579.196      18571.469      43150.665      301.98748      706.71123     -641.75251      841.00371      0.0043106956   0.00432        0.0036156622  -0.010381982    0.0043106956   0.0036091414  -0.010436251    16.975958     -35.884992     -23.594674      13.269943      1.8405362      6.1061037      58.707915      57.559777      58.323118      1              197086.33      1.2178391      9155.3363      20628.422     -7802.6703      400.2752      -2812.6781      24960.197     -19949.685      2197.833       21.6         
     21800   299.5237       25034.168      18801.965      43836.133     -518.54972     -258.53277      51.254351     -1348.3708      0.0043505227   0.00436        0.0063388131  -0.010591302    0.0043505227   0.0063188073  -0.010647789    5.9005812      19.864402      5.3477986      2.9054915     -4.3178992     -1.7390572      58.710254      57.715957      58.310782      1              197587.16      1.2147522      9203.2179      20724.557     -7465.217       421.71547     -2889.3095      24988.953     -19949.748      2149.8949      21.8         
     22000   299.3247       24919.532      18789.473      43709.005      810.3416       1822.9991      133.11557      474.91018      0.0043903483   0.0044         0.0071541934  -0.0098599558   0.0043903483   0.0071287236  -0.0099088871   9.3792933      20.069013     -22.374645      17.507818     -4.6253934     -23.330048      58.712592      57.762721      58.353884      1              197901.3       1.2128239      9390.2454      20697.187     -7853.2145      409.47525     -2763.0785      24988.97      -19950.052      2275.8392      22           
     22200   298.94528      24980.615      18765.656      43746.271     -700.2274      -182.79432     -1658.9221     -258.96578      0.0044301723   0.00444        0.0061750514  -0.0079967415   0.0044301723   0.0061560639  -0.0080288869   10.376592      11.564923     -18.036178      16.85521      -2.2753259     -17.165885      58.71493       57.706564      58.463692      1              198088.84      1.2116757      9313.5253      20777.062     -7715.3578      399.47348     -2868.9412      25025.308     -19950.454      2205.9128      22.2         
     22400   299.86763      24789.552      18823.555      43613.106     -559.90802     -820.38666      45.904459     -905.24186      0.0044699947   0.00448        0.0036893581  -0.0065819138   0.0044699947   0.0036825691  -0.0066036701   16.539054      23.019841      20.033668      21.612317      0.97623665    -29.990221      58.717268      57.564004      58.547075      1              197889.18      1.2128983      9358.5642      20643.204     -7844.1646      404.04036     -2845.7178      25023.554     -19949.929      2227.908       22.4         
     22600   298.06052      25020.61       18710.117      43730.727     -164.47512     -557.16496      6.3076934      57.431909      0.0045098155   0.00452        0.00025444612 -0.0064404255   0.0045098155   0.00025441375 -0.0064612545   19.593719     -1.098003       10.143603      3.3200971      2.9054356     -10.868117      58.719606      57.367003      58.555414      1              197247.88      1.2168416      9271.9424      20745.109     -7704.0901      428.45975     -2782.3772      25009.662     -19948.095      2279.1894      22.6         
     22800   299.23654      24796.051      18783.939      43579.99       235.8876       641.45739     -363.03656      429.24197      0.0045496347   0.00456       -0.00011274052 -0.0070158682   0.0045496347  -0.00011274687 -0.0070405951  -1.855574      -32.015096      27.613991      14.9519       -14.120616     -17.843877      58.721945      57.345944      58.5215        1              197069.12      1.2179454      9284.245       20766.753     -7860.6955      384.93196     -2857.0741      25024.516     -19946.626      2220.8161      22.8         
     23000   297.90752      24938.987      18700.513      43639.5        31.407388      655.36061     -677.73984      116.6014       0.0045894523   0.0046         0.0013418829  -0.0080713174   0.0045894523   0.0013409834  -0.0081040669   14.530685     -24.322026     -13.289579      8.6382444     -12.698695     -9.1106576      58.724283      57.429371      58.459297      1              197153.9       1.2174217      9272.7037      20658.371     -7631.1156      392.55793     -2860.7159      25054.069     -19946.883      2246.4702      23           
     23200   298.86395      25051.125      18760.551      43811.676     -111.66129      326.9797      -696.94007      34.976491      0.0046292684   0.00464        0.0036065144  -0.0080163879   0.0046292684   0.0036000265  -0.0080486919   1.7859104      3.3460059     -16.605907      0.28315237    -3.4050384     -12.858584      58.726621      57.559253      58.462534      1              197618.59      1.214559       9119.2251      20713.188     -7565.8875      409.69401     -2744.8092      25067.306     -19947.59       2374.9061      23.2         
     23400   299.42136      24845.814      18795.541      43641.355      519.7757       1161.4759      254.77406      143.07709      0.0046690828   0.00468        0.0036873529  -0.0073136003   0.0046690828   0.0036805713  -0.0073404758   13.997853      25.269365     -0.14376538     17.15937       1.337165       5.0154638      58.728959      57.563889      58.503953      1              197782.4       1.2135531      9305.9639      20735.407     -7906.6346      415.1098      -2839.5109      25079.359     -19943.88       2295.9681      23.4         
     23600   296.44189      24932.117      18608.511      43540.628      877.62936      1035.1117      107.16609      1490.6103      0.0047088957   0.00472        0.0026971945  -0.0072910259   0.0047088957   0.0026935636  -0.0073177353  -17.213666     -7.826229       6.1969055      9.9538079     -10.926229     -22.91825       58.731298      57.507101      58.505283      1              197599.64      1.2146755      9423.0394      20776.866     -7960.9637      417.84373     -2792.36        25016.214     -19948.522      2275.3318      23.6         
     23800   297.88573      24988.268      18699.145      43687.413      735.86126      201.95743      932.50089      1073.1255      0.004748707    0.00476        0.00085617009 -0.0077457953   0.004748707    0.00085580379 -0.0077759498   4.8164768      20.544889      1.297226       6.3475173      3.2462306     -7.2091018      58.733636      57.401514      58.478482      1              197154.33      1.2174191      9270.0269      20869.226     -7828.6473      410.93074     -2809.2174      25026.236     -19950.287      2266.7313      23.8         
     24000   297.43799      24903.639      18671.039      43574.678      680.65782      718.55528      1310.9316      12.486597      0.0047885167   0.0048         0.00063305328 -0.0077504306   0.0047885167   0.00063285298 -0.0077806213   18.250109     -32.732029     -11.731391      8.3706638     -5.475393      -19.607101      58.735974      57.388717      58.478208      1              197117.3       1.2176477      9362.2385      20830.491     -7967.7904      410.92854     -2777.234       24996.568     -19951.562      2267.7719      24           
     24200   297.99396      24895.138      18705.939      43601.076      82.914536     -725.27281      1252.1805     -278.16413      0.0048283249   0.00484        0.001566527   -0.0067925184   0.0048283249   0.0015653013  -0.0068156925   8.2148561      7.3303375     -5.052419       17.295465     -0.42180753    -8.645862       58.738312      57.442254      58.534663      1              197499.53      1.2152912      9343.3245      20707.267     -7786.1351      412.22061     -2868.558       25035.62      -19948.601      2218.461       24.2         
     24400   297.73131      25002.281      18689.451      43691.733     -5.6792559     -523.94908      1499.4618     -992.55052      0.0048681314   0.00488        0.0016190086  -0.0065335719   0.0048681314   0.0016176994  -0.0065550091   3.4060551      16.917877      32.682215      13.702914      3.4612668     -3.8012863      58.74065       57.445264      58.549924      1              197569.24      1.2148624      9382.7959      20832.536     -7815.5559      403.55701     -2920.2626      25067.339     -19948.128      2198.9484      24.4         
     24600   298.82639      24772.172      18758.193      43530.365     -479.2887      -1264.7072     -231.5359       58.377034      0.0049079364   0.00492        0.0007931164  -0.0075959489   0.0049079364   0.00079280205 -0.0076249451   20.742204     -10.255038     -13.581498      1.0943505     -2.076028      -23.064556      58.742989      57.397897      58.487313      1              197203.08      1.2171181      9437.5464      20613.414     -7885.5936      401.96071     -2835.2108      24989.733     -19949.677      2204.8444      24.6         
     24800   299.28328      24840.352      18786.873      43627.225     -368.07385      585.25027     -1052.4536     -637.01819      0.0049477397   0.00496        0.00094211444 -0.0086614694   0.0049477397   0.00094167093 -0.0086991979   16.811386      3.4229874      4.7745246      11.918969     -5.5057879     -8.5418944      58.745327      57.406443      58.424516      1              197028.52      1.2181965      9239.5633      20799.927     -7668.4773      411.62787     -2999.142       25004.454     -19947.6        2057.7113      24.8         
     25000   297.31914      24913.799      18663.578      43577.377     -63.032586     -1727.2728      1072.1972      465.97787      0.0049875415   0.005          0.00053641885 -0.0094590932   0.0049875415   0.00053627503 -0.0095041146  -9.9190166     -11.004979     -18.176899      7.968134       0.18880593    -5.3365921      58.747665      57.383175      58.377508      1              196798.03      1.2196232      9118.3969      20782.238     -7603.4227      421.28603     -2839.1959      24980.981     -19946.485      2195.3006      25           
     25200   298.45927      24934.464      18735.147      43669.611     -1068.7913     -1066.2263      121.52245     -2261.67        0.0050273417   0.00504        0.0022525404  -0.0078725029   0.0050273417   0.0022500073  -0.0079036547   15.66062      -12.52198      -17.887166      12.863219     -1.7007836     -9.1808921      58.750003      57.481599      58.471014      1              197459.19      1.2155394      9284.1728      20760.193     -7637.6644      418.27294     -2954.7605      25013.383     -19949.134      2109.4894      25.2         
     25400   302.50946      24758.334      18989.389      43747.723     -152.43835      1043.9931     -394.38879     -1106.9194      0.0050671403   0.00508        0.0026848054  -0.0071743749   0.0050671403   0.0026812077  -0.0072002345   20.329806      37.685956      20.581221      10.511304      0.12291768    -4.0101286      58.752341      57.50639       58.512158      1              197691.23      1.2141127      9282.7808      20740.528     -7760.8514      394.47992     -2926.5839      24977.693     -19949.712      2101.3963      25.4         
     25600   298.2006       24846.663      18718.91       43565.573     -580.15408     -377.85433     -1196.5817     -166.02622      0.0051069374   0.00512        0.00054099224 -0.0076083858   0.0051069374   0.00054084596 -0.0076374772   17.890162      6.4386796      13.817519     -5.9010027      9.7281432     -17.167576      58.75468       57.383438      58.48658       1              197190.16      1.2171978      9334.7698      20715.086     -7862.5173      392.50268     -2781.5828      24997.463     -19949.059      2266.8214      25.6         
     25800   297.45297      24802.033      18671.979      43474.012      922.84649      1233.1516      498.23493      1037.153       0.0051467328   0.00516       -0.00080375049 -0.0079203098   0.0051467328  -0.00080407367 -0.0079518421   0.58452815    -26.047327     -10.306756      2.8235128     -5.8330829     -29.592132      58.757018      57.306313      58.468197      1              196871.08      1.2191707      9267.1628      20872.767     -8011.5951      392.65485     -2794.0956      25021.556     -19946.417      2281.0429      25.8         
     26000   294.65659      24930.546      18496.443      43426.989     -8.7054146      564.70362     -332.44064     -258.37922      0.0051865267   0.0052         0.00075506264 -0.0069109079   0.0051865267   0.00075477773 -0.0069348988  -3.6959134     -12.325741     -13.036505      8.3129497     -4.8146113     -12.77951       58.759356      57.395715      58.527686      1              197386.68      1.215986       9215.3431      20859.799     -7821.2919      394.94529     -2773.9989      25003.539     -19947.789      2281.751       26           
     26200   296.48771      24902.059      18611.387      43513.446      685.24768      1895.0661      389.04429     -228.36733      0.005226319    0.00524        0.0021558531  -0.0054944405   0.005226319    0.0021535326  -0.0055095904   13.662186     -3.7547413      7.0888546      20.41396      -4.1672162     -6.2310543      58.761694      57.476054      58.611165      1              197952.78      1.2125086      9325.0512      20875.729     -7992.5762      396.5188      -2750.7415      25000.059     -19951.981      2297.3363      26.2         
     26400   298.53434      25215.281      18739.86       43955.141      277.63753      388.79225      37.446151      406.6742       0.0052661097   0.00528        0.0029198641  -0.0053172642   0.0052661097   0.0029156096  -0.0053314512   19.83052       10.638413      1.5547431      29.287615      5.0737608     -11.238102      58.764033      57.519872      58.621607      1              198146.87      1.2113209      9338.8802      20852.165     -7742.2412      388.97466     -2776.3511      25098.038     -19944.184      2377.5024      26.4         
     26600   299.98216      24875.517      18830.744      43706.261      384.56128      811.34614     -676.68659      1019.0243      0.0053058988   0.00532        0.0015303165  -0.0060844622   0.0053058988   0.0015291468  -0.006103048    18.534198      32.533826      23.29779       15.337801     -4.9541211     -21.002741      58.766371      57.440178      58.576392      1              197727.59      1.2138895      9294.0997      20767.036     -7905.5312      394.23855     -2750.6644      25023.527     -19947.189      2325.6737      26.6         
     26800   296.4217       24942.814      18607.244      43550.057     -30.816396     -1080.6485      861.17845      127.0209       0.0053456863   0.00536       -0.00041720857 -0.007006906    0.0053456863  -0.00041729563 -0.0070315697   4.7291184     -19.826496     -12.208162     -4.14095       -9.6612223     -10.071697      58.768709      57.328482      58.522028      1              197167.79      1.217336       9260.8575      20676.669     -7660.0041      410.84338     -2835.2574      25038.269     -19948.564      2254.4475      26.8         
     27000   297.43519      24915.234      18670.863      43586.097      166.47851     -40.958666      888.24726     -347.85307      0.0053854723   0.0054        -0.00095036121 -0.0066524607   0.0053854723  -0.00095081309 -0.006674687    2.1731801     -6.805073      -12.411789      3.5833779     -18.76959      -17.899104      58.771047      57.297905      58.542917      1              197140.81      1.2175026      9263.3271      20730.759     -7682.8331      377.30928     -2832.5018      25004.562     -19945.388      2226.6717      27           
     27200   297.42585      24722.751      18670.277      43393.028      325.99896     -574.14753      265.5042       1286.6402      0.0054252566   0.00544        2.5036934e-05 -0.0056958726   0.0054252566   2.5036621e-05 -0.005712156    22.818744     -12.972702      3.6485279      24.340585     -15.111868     -25.19586       58.773385      57.353846      58.599294      1              197531.17      1.2150965      9267.4414      20760.645     -7842.1565      385.76379     -2891.5628      24990.956     -19948.336      2151.0574      27.2         
     27400   299.48194      25113.805      18799.344      43913.148      423.57381      472.83345      408.07282      389.81517      0.0054650394   0.00548        0.00098652258 -0.004912265    0.0054650394   0.00098603628 -0.0049243699   27.939335      4.2885446     -2.3960909      23.103809     -3.0426816     -4.1953143      58.775724      57.40899       58.645476      1              197884.78      1.2129252      9437.7755      20738.243     -7728.6152      410.0811      -2814.3284      25018         -19947.352      2256.32        27.4         
     27600   300.17118      24913.36       18842.609      43755.969      714.79351      1134.366       406.14137      603.8732       0.0055048206   0.00552        0.0010549403  -0.0044435292   0.0055048206   0.0010543843  -0.004453431    36.332229      3.2458975     -4.2230709      4.6332612      6.9098133      2.4383521      58.778062      57.412914      58.673101      1              197999.41      1.212223       9355.5047      20694.412     -7812.3646      411.19762     -2788.5642      25001.429     -19948.254      2264.6102      27.6         
[...]
    744000   299.00003      25317.579      18769.092      44086.672     -734.11042     -1482.7853     -1151.4241      431.87814      0.13871792     0.1488        -0.044322212   -0.063451451    0.13871792    -0.045334465   -0.065553918    143.99907      4.2897761     -11.982057      5.5774977     -7.8377253      11.64694       67.15355       54.810425      55.19547       1              203158.77      1.1814377      9299.4784      20782.762     -7874.8177      406.33954     -2434.893       25084.049     -19945.339      2703.8172      744          
    744200   293.77346      25593.466      18441.006      44034.471     -374.84806     -1342.3466      309.88176     -92.079319      0.13875274     0.14884       -0.0438208     -0.062881235    0.13875274    -0.044809935   -0.064945255    155.60666      9.3755246      24.763004      8.8202845      9.9119915      4.4141204      67.155888      54.839182      55.229076      1              203396.2       1.1800586      9261.7281      20960.121     -7776.4979      432.6861      -2446.1391      25104.654     -19943.087      2715.428       744.2        
    744400   295.96715      25379.846      18578.71       43958.556     -534.05901     -1376.2102     -545.94598      319.97917      0.13878755     0.14888       -0.0442133     -0.063031387    0.13878755    -0.045220508   -0.065105494    179.32219      16.137659     -2.8667094      9.1702008      6.9029756      5.31992        67.158226      54.816671      55.220226      1              203287.21      1.1806913      9259.722       20865.014     -7830.291       418.24336     -2482.8084      25092.057     -19942.091      2667.1582      744.4        
    744600   297.29876      25567.556      18662.299      44229.855     -1632.4415     -2803.3445     -1143.2888     -950.69126      0.13882237     0.14892       -0.045042568   -0.063558624    0.13882237    -0.046088513   -0.065668358    169.96579      12.168555      7.3976699      9.8502344      7.0782605     -3.6896303      67.160565      54.76911       55.189154      1              203003.61      1.1823407      9194.214       20744.56      -7418.329       424.31746     -2460.6461      25029.324     -19945.884      2622.7939      744.6        
    744800   299.11197      25383.601      18776.119      44159.721      238.80374     -200.5365       506.50108      410.44664      0.13885719     0.14896       -0.047051946   -0.064245589    0.13885719    -0.048194884   -0.066402218    148.24734      7.3667899      2.3206936     -0.23571146    -0.030368774   -9.5266191      67.162903      54.653868      55.148667      1              202434.9       1.1856624      9433.9308      20932.341     -8046.1355      405.97265     -2510.6546      25110.003     -19941.856      2657.4919      744.8        
    745000   297.49098      25316.418      18674.365      43990.783      119.57407     -881.43217      112.90015      1127.2542      0.138892       0.149         -0.048699391   -0.064454546    0.138892      -0.049925169   -0.066625546    150.41936     -15.342879     -27.857239     -6.6233981     -8.8581558      2.2059702      67.165241      54.559383      55.136353      1              202046.84      1.1879396      9272.7061      20817.031     -7904.7332      415.91994     -2444.2211      25103.592     -19943.877      2715.4946      745          
    745200   296.73034      25337.518      18626.618      43964.136     -1335.0185     -2466.4148     -1425.2863     -113.35442      0.13892681     0.14904       -0.048694632   -0.062908677    0.13892681    -0.049920167   -0.064974538    139.0277      -15.406825      2.54802       -5.3573141     -23.901114      3.6332417      67.167579      54.559656      55.227458      1              202388.75      1.1859327      9372.0904      20711.706     -7791.1382      410.69163     -2507.3894      25086.508     -19944.951      2634.1685      745.2        
    745400   296.90259      25282.416      18637.43       43919.846     -1177.1887     -1511.8658     -1117.923      -901.77719      0.13896162     0.14908       -0.047237688   -0.061532139    0.13896162    -0.048389817   -0.063506669    146.48928     -15.556375      2.2071232     -9.292616       2.8926458     -1.0452274      67.169917      54.643215      55.308585      1              203003.54      1.1823412      9293.6169      20834.071     -7845.8592      423.0492      -2524.1322      25045.282     -19943.611      2577.5384      745.4        
    745600   293.78818      25289.551      18441.93       43731.481     -407.39019     -765.32436     -1601.9783      1145.1321      0.13899643     0.14912       -0.046382337   -0.062723691    0.13899643    -0.047492461   -0.064777153    169.43186      7.059959       23.795455      12.728895     -2.8534593     -8.1281549      67.172256      54.692271      55.23836       1              202934.87      1.1827413      9159.9409      20794.855     -7818.5388      406.84024     -2382.2858      25074.456     -19945.716      2746.4541      745.6        
    745800   297.55559      25555.675      18678.421      44234.096     -529.68106     -1546.0421     -489.75459      446.75356      0.13903124     0.14916       -0.04605637    -0.063442166    0.13903124    -0.047150698   -0.065544004    143.99664      17.552949      0.12944512     9.6804937     -6.2766077      7.1396226      67.174594      54.710966      55.196017      1              202855.68      1.1832029      9228.2494      20993.163     -7737.309       438.31928     -2507.2444      25085.45      -19944.954      2633.2523      745.8        
    746000   297.115        25364.515      18650.764      44015.279     -455.74348     -1949.1267      516.61833      65.277978      0.13906605     0.1492        -0.046863779   -0.063904706    0.13906605    -0.047997446   -0.066037998    162.4386       4.7664342     -15.598939      9.6475426     -6.0236397     -4.6765516      67.176932      54.66466       55.168757      1              202590.94      1.1847491      9344.6571      20797.047     -7947.2514      413.93196     -2395.7315      25094.728     -19942.867      2756.1303      746          
    746200   298.07301      25322.829      18710.901      44033.73      -994.23835     -1837.3404     -1682.4861      537.11153      0.13910085     0.14924       -0.047323961   -0.063700826    0.13910085    -0.048480372   -0.065820223    150.48149     -7.4414999     -4.5286086      0.79689143     0.35918653    -4.164895       67.17927       54.638267      55.180773      1              202544.28      1.1850221      9259.1995      20788.616     -7765.9179      411.84907     -2508.0185      25084.598     -19947.497      2629.0829      746.2        
    746400   298.6504       25287.808      18747.145      44034.953     -820.78263     -2174.3632     -371.85142      83.866703      0.13913566     0.14928       -0.047793931   -0.063328235    0.13913566    -0.048973809   -0.065422362    163.14918      3.3383916     -2.1461879      5.6849903      2.3133658      5.932012       67.181608      54.611313      55.202732      1              202531.97      1.1850941      9326.4197      20774.897     -7842.986       425.10342     -2526.51        25080.298     -19949.414      2604.3741      746.4        
    746600   295.56916      25173.549      18553.727      43727.276     -560.78873     -1319.0601     -290.17048     -73.1356        0.13917046     0.14932       -0.048342875   -0.062665845    0.13917046    -0.049550472   -0.064715438    151.661       -2.1816354     -13.914316     -4.719732      -11.917797     -4.6793308      67.183947      54.57983       55.24177       1              202565.4       1.1848985      9103.7911      20691.221     -7691.8912      419.87655     -2459.8839      25054.568     -19944.132      2650.5512      746.6        
    746800   297.62325      25438.663      18682.668      44121.332     -917.89788     -1868.1963     -382.27218     -503.22516      0.13920527     0.14936       -0.049816664   -0.061336973    0.13920527    -0.051100328   -0.063298728    182.66095      29.254728      16.547106      3.1144918      4.9807271      4.7452912      67.186285      54.495305      55.320087      1              202545.48      1.185015       9395.1728      20744.799     -7776.8292      427.3468      -2483.2386      25073.29      -19941.878      2648.1734      746.8        
    747000   297.60023      25485.137      18681.223      44166.36      -599.095       -124.76597     -584.19346     -1088.3256      0.13924007     0.1494        -0.050679543   -0.060598982    0.13924007    -0.052008859   -0.062512821    137.79011     -10.364689     -12.870685      5.8886498      7.5382033      6.0996681      67.188623      54.445816      55.36358       1              202527.7       1.1851191      9353.6377      20967.57      -7928.2021      420.56662     -2452.7849      25071.082     -19946.733      2671.5643      747          
    747200   297.36532      25459.648      18666.477      44126.125     -721.92639     -1765.8597     -167.11958     -232.79986      0.13927487     0.14944       -0.050811854   -0.060331424    0.13927487    -0.052148243   -0.062228044    138.77109     -8.8927012      10.925852     -5.8489191     -19.75022       3.2957585      67.190961      54.438228      55.379349      1              202564.19      1.1849056      9338.8542      20767.659     -7790.551       414.78002     -2431.154       25102.581     -19942.522      2728.9052      747.2        
    747400   299.17069      25063.659      18779.806      43843.465     -103.79135     -767.54693      730.20525     -274.03238      0.13930967     0.14948       -0.049586974   -0.060566749    0.13930967    -0.050858625   -0.06247851     163.08934     -20.797558     -0.91514086    -7.4770913     -13.61892      -14.948398      67.1933        54.508478      55.36548       1              202781.85      1.1836337      9384.7674      20729.825     -8115.1937      386.47814     -2459.457       25084.21      -19946.971      2677.7821      747.4        
    747600   295.55901      25258.565      18553.09       43811.655     -755.2555      -2185.7775      419.65129     -499.64027      0.13934446     0.14952       -0.048610743   -0.06074565     0.13934446    -0.049831987   -0.062668963    154.89482      7.7582441      10.775374      1.376952       9.8262368     -5.5545596      67.195638      54.564467      55.354936      1              202958.55      1.1826032      9179.8372      20730.93      -7767.7183      416.10414     -2434.8875      25079.278     -19944.978      2699.4122      747.6        
    747800   297.6947       25414.118      18687.154      44101.271     -629.15982     -2261.143       315.26138      58.402107      0.13937926     0.14956       -0.048478451   -0.061674316    0.13937926    -0.049692945   -0.06365818     160.0157       7.3373787      6.6912036      2.762223       11.076976     -10.171331      67.197976      54.572054      55.300205      1              202793.13      1.1835679      9313.2636      20759.397     -7714.0329      424.81497     -2502.9823      25082.59      -19948.933      2630.6746      747.8        
    748000   300.73107      25336.109      18877.755      44213.863     -959.69046     -1659.9564     -452.34189     -766.77305      0.13941406     0.1496        -0.048559553   -0.063441381    0.13941406    -0.049778182   -0.065543166    153.77757      1.388442      -1.9908214      2.8689054      3.9880816     -5.8336583      67.200314      54.567403      55.196063      1              202401.02      1.1858608      9278.7698      20700.011     -7766.8576      430.80776     -2419.7072      25062.09      -19949.006      2693.3776      748          
    748200   297.95913      25311.881      18703.753      44015.634     -306.03615     -1212.4017      349.38797     -55.094673      0.13944885     0.14964       -0.048670072   -0.064452495    0.13944885    -0.04989435    -0.066623355    151.09251     -0.42131777    -6.1555257     -0.14886906     7.3928517      6.9986165      67.202652      54.561064      55.136473      1              202166.05      1.1872391      9358.2397      20719.436     -7775.2265      397.03871     -2508.5365      25070.055     -19949.125      2612.3932      748.2        
    748400   296.19757      25436.618      18593.174      44029.792     -266.54296     -1710.3934      521.751        389.01351      0.13948364     0.14968       -0.048114278   -0.064510848    0.13948364    -0.049310291   -0.066685729    143.87297     -7.3151499     -4.9060124      5.639763       7.5900646      0.53679671     67.204991      54.59294       55.133034      1              202278.59      1.1865786      9338.8815      20873.371     -7770.6347      411.52171     -2555.8477      25086.644     -19947.318      2583.4781      748.4        
    748600   299.37399      25183.655      18792.567      43976.222     -118.23253     -2656.384       1870.9725      430.71399      0.13951843     0.14972       -0.04803819    -0.065335355    0.13951843    -0.049230361   -0.067567483    163.21828      1.017565       10.131187     -6.7914177     -10.680913      2.0310727      67.207329      54.597304      55.084442      1              202123.49      1.1874891      9255.3704      20750.169     -7947.9807      416.73974     -2466.9648      25125.459     -19949.137      2709.3571      748.6        
    748800   298.27582      25449.289      18723.632      44172.921     -953.18008     -1903.6384     -1187.8482      231.94638      0.13955322     0.14976       -0.047715732   -0.066003677    0.13955322    -0.048891688   -0.068282778    160.43981      2.640253      -21.439566      7.74278       -0.11472474    -22.355169      67.209667      54.615798      55.045055      1              202054.41      1.1878951      9249.7044      20691.432     -7534.9055      409.70546     -2540.9517      25120.601     -19946.297      2633.3524      748.8        
    749000   297.43408      25142.536      18670.794      43813.329     -397.48794     -1031.7436     -135.47898     -25.241183      0.13958801     0.1498        -0.047655185   -0.065630241    0.13958801    -0.048828109   -0.067883031    130.11435     -2.4946707     -6.7968247     -13.31783       3.034292      -9.1430733      67.212005      54.619271      55.067063      1              202155.08      1.1873035      9352.4664      20614.244     -7876.8595      429.03283     -2502.9431      25074.922     -19948.327      2623.6518      749          
    749200   298.78         25355.027      18755.281      44110.307     -1221.5071     -2254.9305     -868.36161     -541.2293       0.1396228      0.14984       -0.046388539   -0.064315635    0.1396228     -0.047498964   -0.066477077    141.30648     -17.895778     -2.7285972      2.8335198      3.8447971     -1.0211         67.214343      54.691916      55.144539      1              202715.8       1.1840194      9316.8497      20679.409     -7603.7606      418.61991     -2555.8097      25047.817     -19948.098      2543.9093      749.2        
    749400   298.77125      25270.533      18754.732      44025.264     -532.00251     -802.511       -1067.8257      274.32923      0.13965759     0.14988       -0.045020679   -0.062718095    0.13965759    -0.046065592   -0.064771183    140.24251      17.943374      3.8503221      17.772656     -3.7121125     -3.2296597      67.216682      54.770366      55.23869       1              203360.26      1.1802672      9429.2096      20768.386     -7997.0341      400.08686     -2467.0818      25083.895     -19946.929      2669.8844      749.4        
    749600   297.10693      25446.694      18650.257      44096.951     -1375.426      -2397.7995     -1851.9358      123.4573       0.13969237     0.14992       -0.045990931   -0.062305694    0.13969237    -0.047082101   -0.064331283    170.98279      29.373944      16.390996     -6.4550137     -0.28087824     2.6823331      67.21902       54.71472       55.262995      1              203250.1       1.1809069      9215.163       20717.271     -7629.9807      406.3054      -2422.1459      25109.026     -19948.945      2737.9353      749.6        
    749800   299.7579       25337.094      18816.666      44153.76      -358.59049     -2625.2424      377.15419      1172.3167      0.13972716     0.14996       -0.048631034   -0.061416591    0.13972716    -0.049853314   -0.063383553    155.4348       17.692952      0.85645276     24.051112      7.8258853      5.465543       67.221358      54.563303      55.315394      1              202886.87      1.183021       9413.3716      20698.775     -7931.6141      401.37507     -2391.2414      25095.285     -19948.857      2755.1861      749.8        
    750000   298.80062      25204.108      18756.575      43960.683     -932.66479     -2363.021       229.22105     -664.19442      0.13976194     0.15          -0.051610327   -0.061204958    0.13976194    -0.052989814   -0.063158096    139.03545     -19.875028      11.034229      2.3755394      10.254783      2.3085112      67.223696      54.392434      55.327867      1              202304.16      1.1864286      9281.376       20671.168     -7749.6791      397.10129     -2551.4245      25101.365     -19945.799      2604.1419      750          
WARNING: Bond/angle/dihedral extent > half of periodic box length (../domain.cpp:1172)
Loop time of 19938.4 on 16 procs for 750000 steps with 21060 atoms

Performance: 3.250 ns/day, 7.385 hours/ns, 37.616 timesteps/s, 792.189 katom-step/s
98.8% CPU use with 16 MPI tasks x no OpenMP threads

MPI task timing breakdown:
Section |  min time  |  avg time  |  max time  |%varavg| %total
---------------------------------------------------------------
Pair    | 11761      | 12687      | 13224      | 360.0 | 63.63
Bond    | 3592.4     | 3762.1     | 3909.9     | 129.5 | 18.87
Kspace  | 930.26     | 1614.6     | 2675.4     |1140.3 |  8.10
Neigh   | 1126.3     | 1126.6     | 1126.8     |   0.4 |  5.65
Comm    | 230.1      | 231.69     | 233.02     |   5.5 |  1.16
Output  | 96.926     | 96.932     | 96.989     |   0.1 |  0.49
Modify  | 266.96     | 350.16     | 390.27     | 249.9 |  1.76
Other   |            | 69.58      |            |       |  0.35

Nlocal:        1316.25 ave        1357 max        1266 min
Histogram: 2 0 1 2 0 1 5 3 0 2
Nghost:        13447.2 ave       13570 max       13370 min
Histogram: 3 2 2 1 2 3 0 2 0 1
Neighs:         787376 ave      840052 max      719038 min
Histogram: 1 0 2 3 1 2 0 2 3 2

Total # of neighbors = 12598009
Ave neighs/atom = 598.19606
Ave special neighs/atom = 5.8048433
Neighbor list builds = 36923
Dangerous builds = 0

#-------------------Wrap up-------------------
write_restart  ${myid}.restart
write_restart  tensile_1_EPON_862_pxld_88.2_replicate_1_FF_PCFF-class2xe.restart
System init for write_restart ...
PPPM initialization ...
  using 12-bit tables for long-range coulomb (../kspace.cpp:342)
  G vector (1/distance) = 0.17661259
  grid = 15 15 15
  stencil order = 5
  estimated absolute RMS force accuracy = 0.027445809
  estimated relative force accuracy = 8.2652238e-05
  using double precision KISS FFT
  3d grid and FFT values/proc = 1690 256
Generated 66 of 66 mixed pair_coeff terms from sixthpower/sixthpower mixing rule
write_data     ${myid}.data
write_data     tensile_1_EPON_862_pxld_88.2_replicate_1_FF_PCFF-class2xe.data
System init for write_data ...
PPPM initialization ...
  using 12-bit tables for long-range coulomb (../kspace.cpp:342)
  G vector (1/distance) = 0.17661259
  grid = 15 15 15
  stencil order = 5
  estimated absolute RMS force accuracy = 0.027445809
  estimated relative force accuracy = 8.2652238e-05
  using double precision KISS FFT
  3d grid and FFT values/proc = 1690 256
Generated 66 of 66 mixed pair_coeff terms from sixthpower/sixthpower mixing rule
Total wall time: 5:32:19
