thermo_style   custom step temp pe ke etotal press pxx pyy pzz v_etrue v_eengx v_eengy v_eengz v_etruex v_etruey v_etruez                f_sxx_ave f_syy_ave f_szz_ave f_sxy_ave f_sxz_ave f_syz_ave lx ly lz v_dir vol density ebond eangle edihed                eimp evdwl ecoul elong epair v_Time

restart        ${nsteps} rst1.a.${myid} rst2.a.${myid}
restart        200 rst1.a.${myid} rst2.a.${myid}
restart        200 rst1.a.tensile_3_EPON_862_pxld_88.2_replicate_1_FF_PCFF-class2xe rst2.a.${myid}
restart        200 rst1.a.tensile_3_EPON_862_pxld_88.2_replicate_1_FF_PCFF-class2xe rst2.a.tensile_3_EPON_862_pxld_88.2_replicate_1_FF_PCFF-class2xe
dump           6 all atom 10000 dump.${myid} #every picosecond
dump           6 all atom 10000 dump.tensile_3_EPON_862_pxld_88.2_replicate_1_FF_PCFF-class2xe 
dump_modify    6 scale no sort id

#-------------------Run-------------------
run            ${steps}
run            750000

CITE-CITE-CITE-CITE-CITE-CITE-CITE-CITE-CITE-CITE-CITE-CITE-CITE

Your simulation uses code contributions which should be cited:

- Type Label Framework: https://doi.org/10.1021/acs.jpcb.3c08419

@Article{Gissinger24,
 author = {Jacob R. Gissinger, Ilia Nikiforov, Yaser Afshar, Brendon Waters, Moon-ki Choi, Daniel S. Karls, Alexander Stukowski, Wonpil Im, Hendrik Heinz, Axel Kohlmeyer, and Ellad B. Tadmor},
 title = {Type Label Framework for Bonded Force Fields in LAMMPS},
 journal = {J. Phys. Chem. B},
 year =    2024,
 volume =  128,
 number =  13,
 pages =   {3282–-3297}
}

CITE-CITE-CITE-CITE-CITE-CITE-CITE-CITE-CITE-CITE-CITE-CITE-CITE

PPPM initialization ...
  using 12-bit tables for long-range coulomb (../kspace.cpp:342)
  G vector (1/distance) = 0.18107008
  grid = 15 15 15
  stencil order = 5
  estimated absolute RMS force accuracy = 0.022075831
  estimated relative force accuracy = 6.6480709e-05
  using double precision KISS FFT
  3d grid and FFT values/proc = 1690 256
Generated 66 of 66 mixed pair_coeff terms from sixthpower/sixthpower mixing rule
Neighbor list info ...
  update: every = 1 steps, delay = 0 steps, check = yes
  max neighbors/atom: 5000, page size: 100000
  master list distance cutoff = 14
  ghost atom cutoff = 14
  binsize = 7, bins = 9 9 9
  1 neighbor lists, perpetual/occasional/extra = 1 0 0
  (1) pair lj/class2/coul/long, perpetual
      attributes: half, newton on
      pair build: half/bin/newton
      stencil: half/bin/3d
      bin: standard
WARNING: Inconsistent image flags (../domain.cpp:1051)
WARNING: Bond/angle/dihedral extent > half of periodic box length (../domain.cpp:1172)
Per MPI rank memory allocation (min/avg/max) = 19.08 | 19.45 | 19.49 Mbytes
   Step          Temp          PotEng         KinEng         TotEng         Press           Pxx            Pyy            Pzz          v_etrue        v_eengx        v_eengy        v_eengz        v_etruex       v_etruey       v_etruez      f_sxx_ave      f_syy_ave      f_szz_ave      f_sxy_ave      f_sxz_ave      f_syz_ave          Lx             Ly             Lz           v_dir          Volume        Density         E_bond        E_angle        E_dihed        E_impro         E_vdwl         E_coul         E_long         E_pair         v_Time    
         0   298            24402.281      18706.318      43108.599      58.237664      109.9049       298.26953     -233.46143      0              7.2931796e-16 -3.7167195e-16 -6.0281919e-16  6.6613381e-16 -3.3306691e-16 -5.5511151e-16  0              0              0              0              0              0              58.455388      57.35241       58.93498       3              197582.9       1.2147784      9225.311       20489.258     -7908.5989      403.05691     -2855.2114      24995.792     -19947.327      2193.2541      0            
       200   301.4823       24845.543      18924.912      43770.455     -1344.8866     -1454.7689     -1778.7128     -801.17817      3.99992e-05    0.00012562483 -3.5519609e-05  4e-05          0.00012561694 -3.552024e-05   3.99992e-05   -2.024603      -6.090051      -1.7717118      13.987878     -12.842919     -11.997873      58.462732      57.350373      58.937337      3              197608.61      1.2146204      9416.7845      20629.04      -7771.6318      391.56374     -2844.5413      24973.607     -19949.279      2179.7868      0.2          
       400   299.06449      25012.161      18773.139      43785.3       -528.93662     -448.12269      23.738041     -1162.4252      7.99968e-05    0.0014661336   0.0012101384   8e-05          0.0014650598   0.0012094067   7.99968e-05   -15.058429     -13.691097     -13.721152      13.315379     -6.435548      -15.420188      58.541092      57.421815      58.939695      3              198127.89      1.2114369      9515.5174      20589.394     -7744.5065      402.14263     -2806.0382      25000.135     -19944.483      2249.6131      0.4          
       600   297.09299      24990.013      18649.382      43639.395      59.920601      90.242125     -512.39615      601.91583      0.0001199928   0.0026303307   0.0028578044   0.00012        0.0026268774   0.0028537286   0.0001199928   16.582913      8.4070614      14.073654      3.4071785     -10.4056       -9.8773142      58.609145      57.516312      58.942052      3              198692.59      1.2079939      9537.3545      20488.638     -7750.2209      405.11156     -2803.6723      25059.783     -19946.981      2309.13        0.6          
       800   300.08254      25004.328      18837.045      43841.373     -550.37582     -966.59732     -97.982087     -586.54806      0.0001599872   0.0022338884   0.0018719629   0.00016        0.0022313969   0.0018702129   0.0001599872   23.682155      43.971207      38.119497      19.169452     -8.2114115      4.3579529      58.585971      57.459772      58.94441       3              198426.72      1.2096125      9385.3088      20655.317     -7645.4853      386.99548     -2851.8798      25024.852     -19950.78       2222.1926      0.8          
      1000   296.56397      24899.247      18616.174      43515.421     -220.89121     -430.97287      137.66529     -369.36605      0.00019998     0.00087526384 -0.00036353022  0.0002         0.00087488102 -0.00036359631  0.00019998    -5.183643      -18.198636     -1.2047019      20.407792     -4.1768033      1.9304243      58.506552      57.331561      58.946767      3              197723.49      1.2139147      9565.0025      20482.965     -7761.6525      398.72821     -2783.1076      24945.605     -19948.293      2214.2043      1            
      1200   301.08724      24849.114      18900.113      43749.227      314.26979     -635.42924      613.41085      964.82776      0.0002399712   6.0211659e-05 -0.001822981    0.00024        6.0209846e-05 -0.0018246447   0.0002399712  -17.717369     -2.7826968      5.8430593      9.2723559     -5.3694531     -24.422015      58.458908      57.247858      58.949124      3              197281.92      1.2166317      9570.8792      20412.573     -7779.5395      381.38605     -2781.1841      24992.457     -19947.457      2263.8156      1.2          
      1400   297.92145      24883.755      18701.387      43585.142      370.62298     -579.58062      1058.872       632.57754      0.00027996081  0.00028190074 -0.0018094438   0.00028        0.00028186102 -0.0018110828   0.00027996081 -10.079643     -22.553947      5.6787035      25.834603     -0.32557328    -23.65415       58.471867      57.248634      58.951482      3              197336.22      1.2162969      9563.5045      20567.726     -7913.229       394.16218     -2824.3072      25043.794     -19947.896      2271.5914      1.4          
      1600   298.52409      24921.484      18739.216      43660.7       -464.54158     -489.8201       170.13726     -1073.9419      0.00031994881  0.00079727809 -6.9848297e-05  0.00032        0.00079696044 -6.9850736e-05  0.00031994881  15.53061      -6.8633082      13.949305      14.730475      17.542053     -14.22247       58.501993      57.348404      58.953839      3              197789.89      1.2135071      9478.0411      20517.355     -7741.5584      374.56444     -2794.5508      25032.71      -19945.078      2293.0817      1.6          
      1800   296.62972      24906.777      18620.302      43527.079      767.62205      141.18521      819.10125      1342.5797      0.00035993522  0.00061910178  0.00068609366  0.00036        0.00061891022  0.0006858584   0.00035993522 -1.3303632      14.406933      0.97137553     22.520713      11.747113     -20.099573      58.491578      57.391759      58.956197      3              197912.09      1.2127578      9441.684       20679.887     -7924.5122      395.06131     -2748.8234      25008.093     -19944.612      2314.6572      1.8          
      2000   298.32817      24923.512      18726.918      43650.43      -643.74492     -1053.0559     -161.31983     -716.85907      0.00039992002 -0.00012712726  0.00095965499  0.0004        -0.00012713534  0.00095919482  0.00039992002 -1.7901778      3.1329029      1.4625879      9.8860215     -9.5700665      1.2365381      58.447957      57.407449      58.958554      3              197826.47      1.2132827      9554.3428      20361.076     -7709.9145      400.21377     -2744.4568      25008.409     -19946.158      2317.7942      2            
      2200   298.59462      24715.063      18743.644      43458.707      166.40832      770.00115      728.43624     -999.21244      0.00043990323 -0.0017311152   0.00099078013  0.00044       -0.0017326153   0.00099028963  0.00043990323  7.2112867      1.9870266      33.120256      16.234882     -2.376963      -12.952928      58.354195      57.409234      58.960911      3              197523.16      1.2151458      9435.8105      20635.525     -7988.645       386.58355     -2814.2581      25008.839     -19948.792      2245.7884      2.2          
      2400   296.73976      24885.379      18627.209      43512.588      321.60535      1527.4977      154.88742     -717.56906      0.00047988484 -0.0036988778   0.00074834442  0.00048       -0.0037057356   0.00074806455  0.00047988484 -3.299139       2.3002388     -10.616345      17.689598     -9.5488381     -12.280197      58.239169      57.39533       58.963269      3              197093.94      1.2177921      9607.3067      20605.587     -8040.3205      404.50521     -2763.3832      25019.131     -19947.447      2308.3005      2.4          
      2600   300.24885      25134.729      18847.484      43982.214      582.18964      724.64902      643.8223       378.0976       0.00051986485 -0.004594496    0.00021557923  0.00052       -0.0046050832   0.00021555599  0.00051986485 -33.085436      2.1081355     -1.0261611      6.9227         7.9330469     -14.677836      58.186815      57.364774      58.965626      3              196819.8       1.2194883      9653.9553      20665.375     -7829.4008      394.56124     -2811.2303      25004.164     -19942.695      2250.2387      2.6          
      2800   299.24439      24946.382      18784.432      43730.814      550.92561      1694.7725      1027.2658     -1069.2615      0.00055984326 -0.0024267569  -0.00040021152  0.00056       -0.0024297062  -0.00040029163  0.00055984326 -30.288039      3.3389937      13.394558      3.9446115     -6.5538386     -12.167445      58.313531      57.329457      58.967984      3              197134.87      1.2175392      9578.5484      20684.26      -7868.7543      392.02774     -2836.4109      24944.823     -19948.111      2160.3007      2.8          
      3000   297.42374      24865.976      18670.144      43536.12       462.17983      1156.5712      1292.6552     -1062.6869      0.00059982007  0.0020563473  -0.00097709045  0.0006         0.0020542359  -0.00097756811  0.00059982007  7.3312066     -0.78395766     34.417922      5.4601603      4.0469939     -18.634746      58.575593      57.296372      58.970341      3              197914.43      1.2127435      9592.7483      20692.606     -8004.318       407.64396     -2892.8777      25016.334     -19946.16       2177.296       3            
      3200   296.62139      25082.61       18619.779      43702.389      552.71721      226.14662      859.1436       572.86142      0.00063979529  0.0038317512  -0.0019768889   0.00064        0.0038244287  -0.0019788456   0.00063979529  42.097129     -1.6744416      33.437515      28.694829     -7.3625759      3.7042236      58.679375      57.239031      58.972698      3              198074.58      1.2117629      9549.2961      20720.173     -7853.9892      406.62258     -2745.132       24947.081     -19941.441      2260.5077      3.2          
      3400   296.45358      24913.029      18609.244      43522.274      542.67824      310.81538      892.34924      424.87011      0.0006797689   0.0028960772  -0.0023710457   0.00068        0.0028918916  -0.0023738611   0.0006797689   10.983108     -14.624166      21.258221      23.285255     -9.0626933     -7.8950231      58.624679      57.216425      58.975056      3              197819.71      1.2133242      9428.7708      20599.463     -7818.5406      406.6585      -2729.9792      24972.349     -19945.692      2296.678       3.4          
      3600   297.72086      24974.647      18688.795      43663.442     -280.40701      141.96791     -865.83639     -117.35256      0.00071974092  0.0020862587  -0.00096924436  0.00072        0.0020840855  -0.00096971438  0.00071974092 -0.052321226   -13.230465     -19.291129      16.124638     -11.970049     -15.529897      58.577341      57.296822      58.977413      3              197945.62      1.2125524      9507.1577      20675.964     -7866.6608      398.36097     -2766.8739      24970.941     -19944.241      2259.8256      3.6          
      3800   299.52041      24832.38       18801.758      43634.138      465.91566      374.73794      452.94319      570.06585      0.00075971135  0.0009153779   0.00045131958  0.00076        0.00091495919  0.00045121777  0.00075971135  1.6603636      5.9117866      23.966466      10.627107     -9.1237895     -1.0719879      58.508897      57.378295      58.979771      3              198003.39      1.2121986      9516.5873      20643.729     -8023.0604      404.04853     -2792.3109      25030.711     -19947.325      2291.0752      3.8          
      4000   297.99328      24957.851      18705.896      43663.747      92.871794      447.56917      599.49064     -768.44444      0.00079968017 -0.00040466959  0.0016721248   0.0008        -0.00040475149  0.0016707283   0.00079968017 -8.9462818     -14.039461      5.0535135     -11.381246     -0.61811497    -3.0823011      58.431733      57.448311      58.982128      3              197991.46      1.2122717      9442.1521      20630.557     -7786.9329      399.45649     -2752.702       24969.807     -19944.487      2272.6176      4            
      4200   295.77302      24918.39       18566.524      43484.914     -603.17378      17.134893     -1736.384      -90.272222      0.0008396474  -0.0012616589   0.0020559382   0.00084       -0.0012624555   0.0020538277   0.0008396474  -0.35182629     32.454706      38.822765      4.8248669     -5.2577388     -16.517199      58.381637      57.470323      58.984485      3              197905.43      1.2127987      9456.7361      20646.562     -7816.7791      396.42268     -2817.2674      25000.348     -19947.632      2235.4481      4.2          
      4400   296.20407      24954.905      18593.582      43548.487     -371.19515      82.241862     -193.92477     -1001.9025      0.00087961303 -0.00080093257  0.0010953626   0.00088       -0.00080125349  0.0010947632   0.00087961303 -21.495189      6.306294       14.092656      11.195806     -19.258319     -13.480435      58.408569      57.415232      58.986843      3              197814.83      1.2133541      9436.4379      20722.714     -7861.7609      387.27904     -2803.8844      25022.196     -19948.077      2270.2344      4.4          
      4600   298.17654      25278.002      18717.4        43995.401     -597.14975     -311.4367      -494.43725     -985.57531      0.00091957706 -0.00057149449 -0.0010915375   0.00092       -0.00057165785 -0.0010921337   0.00091957706  17.243973      13.764011     -7.3035039      26.140348     -5.1373242     -16.876075      58.421981      57.289808      58.9892        3              197435.91      1.2156828      9419.0229      20801.113     -7713.8537      402.80811     -2711.4452      25028.181     -19947.824      2368.9116      4.6          
      4800   298.22133      25000.736      18720.212      43720.948     -73.102131     -445.86317      160.99304      65.563731      0.00095953949  5.7260828e-05 -0.0029675146   0.00096        5.7259189e-05 -0.0029719264   0.00095953949 -10.052802     -17.261027      11.982466      12.952926     -3.7007537     -11.282665      58.458735      57.182216      58.991558      3              197196.98      1.2171558      9395.6031      20650.695     -7629.6974      424.38828     -2888.3957      24994.947     -19946.803      2159.7475      4.8          
      5000   298.50627      24851.515      18738.098      43589.612      646.92816      505.60174      1259.886       175.29671      0.00099950033  0.0021093288  -0.0034386757   0.001          0.0021071073  -0.0034446015   0.00099950033 -8.3504648     -17.027626      16.883861      8.8964643     -8.2396991     -10.752167      58.57869       57.155194      58.993915      3              197516.13      1.215189       9432.0045      20711.797     -7822.7299      401.41492     -2875.3079      24957.63      -19953.294      2129.0283      5            
      5200   296.77982      24969.274      18629.724      43598.997     -646.67971     -933.56191     -270.0002      -736.47702      0.0010394596   0.0034625205  -0.0027534626   0.00104        0.0034565397  -0.0027572603   0.0010394596   9.2535509     -6.1348876      26.647893      5.2730902     -14.803101     -16.21104       58.657791      57.194493      58.996272      3              197926.75      1.212668       9357.1213      20680.934     -7623.8361      410.85041     -2899.0876      24993.253     -19949.961      2144.2043      5.2          
      5400   296.78235      24780.538      18629.883      43410.421     -624.93742     -1119.5033      274.51535     -1029.8243      0.0010794172   0.0035340985  -0.0022964033   0.00108        0.0035278683  -0.0022990441   0.0010794172   15.128084      6.8491722      36.28366       12.986084     -8.1973821     -18.202894      58.661975      57.220706      58.99863       3              198039.5       1.2119776      9467.0132      20536.044     -7874.5655      396.17832     -2818.9916      25024.656     -19949.797      2255.8676      5.4          
      5600   298.68173      25099.235      18749.112      43848.347     -177.32117      99.138411     -176.53969     -454.56222      0.0011193733   0.0010432729  -0.002463754    0.00112        0.001042729   -0.002466794    0.0011193733   19.587713      0.011984765    11.130266      2.7828016     -4.3291772     -17.036695      58.516373      57.211108      59.000987      3              197522.71      1.2151486      9433.4259      20617.226     -7593.108       393.1859      -2788.3785      24984.54      -19947.656      2248.5055      5.6          
      5800   296.87324      25143.872      18635.588      43779.46      -319.29869     -1386.3685      514.90562     -86.43321       0.0011593277  -0.0015010129  -0.0025285909   0.00116       -0.0015021405  -0.0025317932   0.0011593277  -16.298298     -3.5332554      17.851736     -1.510056       9.4799909     -7.2552007      58.367646      57.20739       59.003345      3              197015.75      1.2182754      9459.9521      20698.808     -7648.4771      403.00453     -2779.8259      24956.14      -19945.73       2230.5842      5.8          
      6000   296.03391      25117.127      18582.901      43700.028     -539.9633       395.64293      332.59466     -2348.1275      0.0011992806  -0.0027293939  -0.00094433284  0.0012        -0.0027331255  -0.000944779    0.0011992806  -11.036383     -20.903133      8.5021999      4.1137006      3.6193165     -18.034345      58.29584       57.298251      59.005702      3              197093.78      1.2177931      9564.3945      20750.018     -7792.0529      421.51293     -2901.5076      25020.127     -19945.365      2173.2544      6            
      6200   298.61608      24923.168      18744.991      43668.16      -214.2324       53.360716     -59.499846     -636.55808      0.0012392318  -0.00348641     0.0006300896   0.00124       -0.0034925016   0.00062989118  0.0012392318  -6.1425505      29.725652      26.57825       10.104182     -5.9812191     -19.832472      58.251589      57.388547      59.008059      3              197262.41      1.216752       9352.3272      20699.782     -7719.3106      414.8878      -2870.4238      24992.61      -19946.704      2175.4818      6.2          
      6400   297.63483      24935.335      18683.395      43618.73       570.29381      828.00636      999.11989     -116.2448       0.0012791815  -0.0040625957   0.00059423328  0.00128       -0.0040708704   0.0005940568   0.0012791815  -13.273407      0.35213151     4.5249489      13.137795     -0.65075961    -8.1900987      58.217908      57.386491      59.010417      3              197149.17      1.217451       9466.2161      20815.989     -7906.6057      396.06534     -2891.2781      25002.873     -19947.926      2163.6695      6.4          
      6600   298.46589      24951.586      18735.563      43687.149      730.49093      645.79892      1740.7545     -195.0806       0.0013191296  -0.0031023319   0.00088523381  0.00132       -0.0031071541   0.00088484222  0.0013191296  -8.7020529      7.4789472      0.46304739     13.031646     -6.7978505     -7.4450667      58.27404       57.403181      59.012774      3              197404.53      1.215876       9450.5009      20720.846     -7873.573       410.79205     -2806.7175      24995.92      -19946.183      2243.0194      6.6          
      6800   297.7703       24915.34       18691.899      43607.238     -75.355581     -356.30697      217.94303     -87.702805      0.001359076   -0.0010616735   0.00037463368  0.00136       -0.0010622375   0.00037456352  0.001359076    5.522153      -1.6231552      9.7886217      10.067554     -11.740022      2.7120781      58.393328      57.373896      59.015132      3              197715.61      1.2139631      9407.2993      20693.207     -7765.9649      392.44335     -2826.5637      24963.226     -19948.307      2188.3552      6.8          
      7000   297.75683      24890.752      18691.054      43581.805      375.20655      517.26965      452.50533      155.84465      0.0013990209   0.00042704513 -0.0014660528   0.0014         0.00042695397 -0.0014671285   0.0013990209   17.203877      20.351035      11.110423      0.29409008    -13.15004      -10.577462      58.480351      57.268329      59.017489      3              197653.82      1.2143425      9420.7007      20640.862     -7856.7202      413.56878     -2767.232       24983.911     -19944.339      2272.3408      7            
      7200   296.62723      24984.434      18620.145      43604.579      63.27198       586.67353      1057.697      -1454.5546      0.0014389642   0.0013883601  -0.0028979522   0.00144        0.0013873972  -0.0029021594   0.0014389642   2.0571857     -23.795999      7.2602787      14.83618      -8.7426767     -4.4827531      58.536545      57.186206      59.019846      3              197567.93      1.2148705      9349.434       20787.576     -7821.9886      415.42629     -2805.7559      25009.165     -19949.423      2253.9865      7.2          
      7400   297.11981      24842.725      18651.066      43493.791     -418.76516     -1551.3492      596.60423     -301.55053      0.0014789059   0.0031177614  -0.0033818631   0.00148        0.0031129112  -0.0033875946   0.0014789059  -10.777806     -8.0341856     -12.952632      9.0145822     -6.2056467     -24.244603      58.637638      57.158452      59.022204      3              197820.98      1.2133164      9283.989       20581.188     -7645.7605      393.08507     -2811.1814      24990.709     -19949.304      2230.2234      7.4          
      7600   301.37987      24898.953      18918.482      43817.435     -444.18223     -232.43428     -108.26816     -991.84425      0.001518846    0.0035171303  -0.0038693538   0.00152        0.0035109596  -0.0038768591   0.001518846    32.948603      16.200579      39.767766      5.3950399     -16.804698     -1.1253711      58.660983      57.130494      59.024561      3              197810.84      1.2133786      9248.4273      20787.154     -7784.913       409.24727     -2821.993       25011.421     -19950.392      2239.0366      7.6          
      7800   298.3073       24804.154      18725.608      43529.762     -102.08836      2.7587693     -537.01819      227.99435      0.0015587845   0.0030521636  -0.0051936274   0.00156        0.0030475153  -0.0052071611   0.0015587845   0.40195295    -6.5130838      27.026188      9.0999753     -4.6155477     -16.691933      58.633804      57.054543      59.026919      3              197464.22      1.2155085      9334.5836      20596.946     -7695.6413      402.34729     -2890.9137      25004.735     -19947.903      2165.9187      7.8          
      8000   297.8149       24950.211      18694.698      43644.909      696.276        142.26426      1209.8096      736.75408      0.0015987214   0.0028181697  -0.0072944833   0.0016         0.0028142061  -0.0073212182   0.0015987214  -21.09942      -12.141766     -10.591443      13.478829      4.1774043     -5.542927       58.620125      56.934054      59.029276      3              197009.11      1.2183165      9364.829       20703.724     -7825.7836      402.27393     -2731.2136      24986.137     -19949.756      2305.1676      8            
      8200   297.34437      24700.887      18665.162      43366.049      1333.7372      1110.6421      1525.3473      1365.2221      0.0016386567   0.0036362162  -0.0072016239   0.00164        0.0036296212  -0.0072276807   0.0016386567   14.825996     -24.3768       -4.794835       6.7160374      3.112464      -14.142621      58.667945      56.93938       59.031633      3              197196.14      1.217161       9499.3534      20637.612     -8036.4953      390.83229     -2881.8553      25038.728     -19947.288      2209.585       8.2          
      8400   299.58507      24733.025      18805.817      43538.842      829.99577      1263.3174      562.20703      664.46288      0.0016785904   0.002483856   -0.0049380658   0.00168        0.0024807764  -0.0049502983   0.0016785904   9.288233      -20.748916     -3.0859345      7.0984156     -1.1581983     -17.155011      58.600583      57.0692        59.033991      3              197426.69      1.2157396      9430.7041      20573.978     -8015.0467      385.19965     -2745.9806      25048.795     -19944.625      2358.1894      8.4          
      8600   299.08573      24865.039      18774.472      43639.511     -36.857567     -526.79087     -383.18423      799.4024       0.0017185225   0.0012682927  -0.0015905851   0.00172        0.0012674891  -0.0015918514   0.0017185225  -0.38907282     4.1634198     -1.411194       4.4368358      3.1111059     -11.130352      58.529527      57.261186      59.036348      3              197858.56      1.213086       9438.761       20639.035     -7958.2953      409.36963     -2728.09        25014.254     -19949.995      2336.1691      8.6          
      8800   297.40597      24892.854      18669.029      43561.884     -469.43344     -747.17002     -445.94667     -215.18362      0.001758453   -0.00068918922 -2.1752986e-05  0.00176       -0.00068942682 -2.1753222e-05  0.001758453    26.634173      33.393746      18.237583      12.781387     -4.0146454     -6.4077121      58.415101      57.351163      59.038705      3              197789.93      1.2135068      9353.8991      20837.665     -7876.4293      409.58962     -2844.4465      24961.785     -19949.209      2168.1297      8.8          
      9000   297.27077      24903.573      18660.542      43564.115     -143.18467     -242.84045     -583.36748      396.65392      0.0017983819  -0.0036429456  -0.00023821556  0.0018        -0.0036495973  -0.00023824394  0.0017983819  -14.083809     -5.9570107      2.4156421      13.20562      -2.0541608     -12.206108      58.242438      57.338748      59.041063      3              197170.49      1.2173193      9343.4707      20643.361     -7710.0535      408.23719     -2779.1212      24949.315     -19951.636      2218.5575      9            
      9200   295.02519      25007.87       18519.581      43527.451     -602.03142     -604.53983     -125.30204     -1076.2524      0.0018383093  -0.0035029407   0.00071216068  0.00184       -0.0035090904   0.00071190721  0.0018383093  -28.770963     -5.8224796      23.546169     -3.161544       10.616537     -22.523458      58.250622      57.393254      59.04342       3              197393.54      1.2159438      9335.7111      20761.728     -7650.1638      408.73149     -2876.9375      24983.226     -19954.425      2151.8635      9.2          
      9400   300.43153      24957.669      18858.952      43816.621     -429.92748     -1078.1817      54.262791     -265.86357      0.001878235   -0.0027053289   0.0010677708   0.00188       -0.0027089949   0.0010672011   0.001878235    7.0243777     -0.12579738    -1.8208087      16.621514     -9.5843791     -12.380544      58.297247      57.41365       59.045778      3              197629.63      1.2144912      9326.0394      20692.746     -7717.6728      410.68641     -2815.2821      25011.595     -19950.443      2245.8704      9.4          
      9600   302.19626      24757.872      18969.729      43727.601      183.78126      1480.742       235.8146      -1165.2128      0.0019181592  -0.0032114672   0.00079708911  0.00192       -0.003216635    0.00079677161  0.0019181592   13.142221      7.7646543      21.439209      1.2269751     -4.1025267     -7.6451368      58.267661      57.398125      59.048135      3              197483.8       1.215388       9366.5179      20677.946     -7898.2101      398.0948      -2806.8572      24971.118     -19950.737      2213.5237      9.6          
      9800   296.82407      24979.285      18632.501      43611.787      847.03295      1595.8327      874.08964      71.176475      0.0019580817  -0.002877845    0.00045480687  0.00196       -0.0028819939   0.00045470347  0.0019580817  -29.911115     -3.3626189      11.32272       9.8200768     -5.8918477     -8.3655446      58.287163      57.378495      59.050492      3              197490.22      1.2153485      9358.8245      20779.607     -7747.3119      400.09495     -2839.773       24976.003     -19948.159      2188.0706      9.8          
     10000   299.2107       24747.162      18782.317      43529.479      656.7448       533.3558       1296.2939      140.58474      0.0019980027  -0.0017824872  -0.00013479602  0.002         -0.0017840777  -0.00013480511  0.0019980027   26.019036      17.52706       30.304606      6.3035348     -9.2243503     -11.974758      58.351192      57.344679      59.05285       3              197598.54      1.2146823      9372.1474      20669.945     -7825.6862      389.45558     -2827.7893      24916.151     -19947.062      2141.3004      10           
     10200   297.002        24750.128      18643.671      43393.799      351.94678      986.58288     -303.20427      372.46173      0.002037922   -0.0023661215  -0.0015367524   0.00204       -0.0023689252  -0.0015379344   0.002037922    9.1197323     -4.695162       8.6059446      16.877676     -2.7857324     -7.2542323      58.317076      57.264274      59.055207      3              197213.98      1.2170509      9228.0668      20653.139     -7704.8321      404.84694     -2825.5567      24942.76      -19948.296      2168.9073      10.2         
     10400   297.32358      24875.457      18663.857      43539.314      163.17129     -66.695149      731.43071     -175.22168      0.0020778398  -0.0020056255  -0.0024992523   0.00208       -0.0020076394  -0.0025023807   0.0020778398  -25.711024     -24.05009      -23.506035     -4.2297354     -13.913184     -26.308632      58.338148      57.209072      59.057565      3              197102.93      1.2177365      9407.3752      20679.136     -7791.0352      404.5303      -2846.3306      24966.401     -19944.619      2175.4507      10.4         
     10600   297.00498      25126.423      18643.857      43770.28      -1039.7887     -1514.6728     -1137.6465     -467.04676      0.002117756   -0.0016455746  -0.002232212    0.00212       -0.0016469301  -0.0022347071   0.002117756    6.2435228      9.5795783      24.283422      6.8558001      2.7809511     -14.150271      58.359195      57.224388      59.059922      3              197234.7       1.216923       9352.9198      20734.356     -7535.3042      411.12563     -2879.8634      24989.808     -19946.619      2163.3257      10.6         
     10800   297.94876      24830.199      18703.101      43533.3        6.2826374     -1013.9954      820.5466       212.29672      0.0021576706  -0.001255656   -0.0020144608   0.00216       -0.001256445   -0.0020164925   0.0021576706   4.3646938     -3.2385613      24.503418     -1.4177326      13.412206     -23.574518      58.381988      57.236876      59.062279      3              197362.67      1.2161339      9453.9997      20635.822     -7899.4717      402.8253      -2801.4315      24988.076     -19949.621      2237.0234      10.8         
     11000   297.2492       24791.702      18659.188      43450.89       254.16241     -517.24868      723.8214       555.91451      0.0021975835   0.0002172899  -0.0010189506   0.0022         0.0002172663  -0.00101947     0.0021975835  -7.9845331     -4.4082259      34.994683      2.6842344      4.1417779     -11.284679      58.46809       57.293971      59.064637      3              197858.8       1.2130845      9403.8949      20752.415     -7988.477       409.29045     -2812.8692      24973.506     -19946.058      2214.5786      11           
     11200   300.23358      24731.644      18846.526      43578.17      -614.68048     -677.08189     -485.63811     -681.32145      0.0022374949   0.00058751191  0.00047618347  0.00224        0.00058733939  0.00047607013  0.0022374949   11.92365      -7.4049168      9.2699545      7.5686302      1.2280928     -16.454693      58.489731      57.379721      59.066994      3              198236.18      1.2107751      9241.5154      20632.645     -7784.6687      399.52163     -2792.3313      24984.312     -19949.35       2242.6307      11.2         
     11400   299.42618      25070.259      18795.843      43866.102     -400.20902     -70.157688     -1243.4338      112.96442      0.0022774047  -0.00026138405  0.00045734781  0.00228       -0.00026141822  0.00045724326  0.0022774047   15.960193      32.357593      27.590344      18.663317      7.7383659     -19.496834      58.440109      57.37864       59.069352      3              198072.18      1.2117777      9269.31        20810.212     -7618.2493      420.75783     -2837.79        24977.782     -19951.763      2188.2285      11.4         
     11600   299.13598      24744.676      18777.627      43522.303      839.80834      370.35544      836.87441      1312.1952      0.002317313   -0.0012078246  -0.00050586831  0.00232       -0.0012085546  -0.0005059963   0.002317313    4.1091388      1.6444491      12.317233      4.8558843     -3.2740863      3.4155612      58.384784      57.323398      59.071709      3              197702.03      1.2140464      9237.9584      20787.296     -7898.4113      411.69801     -2796.7011      24951.97      -19949.134      2206.1351      11.6         
     11800   297.93826      24955.097      18702.442      43657.54      -964.18474     -75.041753     -687.00929     -2130.5032      0.0023572196  -0.0031053052  -0.0022235273   0.00236       -0.0031101366  -0.002226003    0.0023572196  -4.1832368     -1.9286949      14.627536      8.0906456      1.4063333     -12.097489      58.273866      57.224886      59.074066      3              196995.2       1.2184025      9268.5537      20684.69      -7591.4195      420.46694     -2848.0907      24967.02      -19946.124      2172.8059      11.8         
     12000   296.56911      24906.855      18616.497      43523.351      787.22371      1252.7038      517.89872      591.06858      0.0023971246  -0.0042733755  -0.0023739466   0.0024        -0.0042825325  -0.0023767689   0.0023971246  -23.047608     -17.845275     -3.2627518      10.56913      -2.6860322     -20.336792      58.205586      57.216259      59.076424      3              196742.56      1.219967       9309.7534      20721.396     -7739.3628      427.31237     -2813.0975      24951.67      -19950.817      2187.7557      12           
     12200   299.79456      24953.548      18818.968      43772.516      153.41507      245.31305      507.37306     -292.4409       0.002437028   -0.0027164894  -0.00085285209  0.00244       -0.0027201857  -0.00085321597  0.002437028   -23.818039     -19.764688     -9.6922233     -1.8231542     -6.6816674     -18.60171       58.296595      57.303497      59.078781      3              197358.5       1.2161596      9195.8349      20816.334     -7656.0759      400.89754     -2906.9989      25049.193     -19945.637      2196.5571      12.2         
     12400   299.41399      24846.24       18795.078      43641.318     -671.87943     -738.77372     -580.54565     -696.31891      0.0024769299  -0.0019502506   0.00026847734  0.00248       -0.0019521548   0.00026844131  0.0024769299   21.182856      22.647675      28.846327      7.9586968     -1.5188641     -4.1556569      58.341385      57.367808      59.081139      3              197739.69      1.2138152      9365.593       20573.021     -7719.8928      410.94659     -2902.4074      25063.728     -19944.747      2216.5729      12.4         
     12600   298.79917      24876.994      18756.484      43633.478     -188.60044      840.65095     -93.459175     -1312.9931      0.0025168301  -0.0022145273  -0.00012354905  0.00252       -0.002216983   -0.00012355668  0.0025168301   19.241788      7.1200745      18.337022      2.1814372     -4.8173095     -30.436401      58.325937      57.345324      59.083496      3              197617.74      1.2145642      9185.6944      20780.305     -7750.9174      421.57465     -2819.7594      25007.218     -19947.121      2240.3373      12.6         
     12800   298.53811      24782.907      18740.097      43523.004      289.36338      699.44261      460.69004     -292.04251      0.0025567288  -0.0031181326  -0.00019469259  0.00256       -0.0031230041  -0.00019471155  0.0025567288  -3.1860167     -1.0050801      23.74494      -2.0098624     -4.6289019     -3.1003218      58.273116      57.341244      59.085853      3              197432.6       1.2157032      9292.0764      20820.733     -7903.6111      423.7549      -2877.0036      24975.626     -19948.668      2149.9543      12.8         
     13000   297.77187      24899.685      18691.997      43591.682     -422.43614     -228.20066     -1457.1291      418.02139      0.0025966258  -0.005219104   -0.00145039     0.0026        -0.0052327711  -0.0014514428   0.0025966258   0.93952624    -1.3389026      8.4960373      12.295589     -9.565214      -19.254739      58.150303      57.269227      59.088211      3              196776.91      1.2197541      9240.2484      20823.343     -7714.4171      407.38906     -2828.7034      24918.742     -19946.917      2143.1213      13           
     13200   297.55095      25058.399      18678.13       43736.529     -876.6885      -727.10067     -1641.3349     -261.62988      0.0026365213  -0.0058021564  -0.001152855    0.00264       -0.0058190543  -0.00115352     0.0026365213  -16.96102      -10.519032     -2.479235       27.671817      1.0656855     -12.177851      58.116221      57.286291      59.090568      3              196728.03      1.2200572      9284.7271      20883.062     -7607.02        414.45158     -2930.2519      24962.783     -19949.353      2083.1784      13.2         
     13400   297.59025      24633.155      18680.597      43313.752      956.3246       877.6829       1262.68        728.61089      0.0026764152  -0.0043407714   0.00057554762  0.00268       -0.0043502199   0.00057538205  0.0026764152  -25.020699     -15.263275      14.739515      10.320659     -11.676835     -20.64588       58.201647      57.385419      59.092926      3              197365.99      1.2161135      9447.5057      20786.279     -8235.374       406.03131     -2783.1252      24962.077     -19950.238      2228.7133      13.4         
     13600   297.87373      24981.82       18698.391      43680.211     -733.15639     -1005.8874     -286.00845     -907.57335      0.0027163075  -0.0023270959   0.0020118562   0.00272       -0.0023298078   0.0020098351   0.0027163075   11.770011      8.6625372      16.389062      3.6269475     -2.7904814     -16.26217       58.319357      57.467795      59.095283      3              198056.95      1.2118709      9213.6312      20772.498     -7669.6588      405.9762      -2735.3565      24939.542     -19944.811      2259.3737      13.6         
     13800   294.20801      24981.807      18468.284      43450.09       168.85377      523.65198      465.40903     -482.49968      0.0027561982  -0.0023131958   0.0031604558   0.00276       -0.0023158754   0.003155472    0.0027561982   25.631603      9.4498865      22.179666      2.9490588     -3.7480568     -5.7653977      58.320169      57.53367       59.09764       3              198294.65      1.2104181      9343.953       20893.732     -7949.2601      406.68512     -2765.9011      25001.592     -19948.994      2286.6967      13.8         
     14000   297.50114      25092.912      18675.003      43767.915     -407.21184     -339.54374     -525.40015     -356.69163      0.0027960873  -0.0037586691   0.0027736246   0.0028        -0.0037657506   0.0027697852   0.0027960873   11.170475      16.095606      18.201827      5.809457      -0.47684599    -7.2986776      58.235674      57.511484      59.099998      3              197938.9       1.2125936      9320.4181      20789.29      -7728.5668      414.6499      -2761.4528      25006.316     -19947.743      2297.1202      14           
     14200   300.87693      25042.403      18886.911      43929.313      359.09373      314.24758      1111.0483     -348.01466      0.0028359748  -0.0056620093   0.0022540535   0.00284       -0.0056780992   0.002251517    0.0028359748  -0.20246973    -12.335012      1.6388528      13.801643      10.028085      10.356522      58.124413      57.481686      59.102355      3              197466.24      1.2154961      9373.5483      20780.983     -7773.1308      416.30638     -2829.8957      25023.689     -19949.097      2244.6958      14.2         
     14400   298.9269       24930.349      18764.502      43694.851     -287.05609      78.236043     -254.19127     -685.21304      0.0028758607  -0.0060324235   0.0020544835   0.00288       -0.0060506921   0.0020523759   0.0028758607  -31.708775      4.0181963     -16.230562      18.590334     -13.422822     -15.674557      58.10276       57.47024       59.104713      3              197361.25      1.2161427      9248.5194      20765.659     -7731.5186      393.53369     -2799.1396      25005.067     -19951.771      2254.1557      14.4         
     14600   299.45777      24864.881      18797.826      43662.708     -117.11382     -521.99499     -312.25453      482.90807      0.0029157451  -0.0038794177   0.0012713155   0.00292       -0.0038869621   0.001270508    0.0029157451  -10.364761      0.69646583     0.53161234     5.5569113     -1.5677905     -12.400239      58.228615      57.425323      59.10707       3              197642.05      1.2144149      9237.8638      20594.291     -7589.7988      401.574       -2833.3757      25004.869     -19950.542      2220.9514      14.6         
     14800   298.15539      24789.996      18716.072      43506.068      732.53426      274.22387      610.47466      1312.9043      0.0029556278  -0.0022808547  -0.00016420255  0.00296       -0.0022834598  -0.00016421603  0.0029556278   21.195058      20.167715      18.232849      17.665297      12.781118      0.98581905     58.32206       57.342993      59.109427      3              197683.29      1.2141615      9254.7154      20763.86      -7833.4392      403.29675     -2818.5466      24971.222     -19951.113      2201.5629      14.8         
     15000   295.94337      24935.29       18577.217      43512.508     -275.39237     -9.3108777      5.2688362     -822.13508      0.002995509   -0.0016359312  -0.0018174187   0.003         -0.0016372708  -0.0018190722   0.002995509   -5.4599333     -13.244737      13.329375      11.252255      11.919092      3.8987797      58.359759      57.248177      59.111785      3              197491.87      1.2153383      9306.9977      20751.696     -7693.9923      413.71765     -2849.0838      24956.357     -19950.402      2156.8715      15           
     15200   299.94474      25174.826      18828.395      44003.221      438.74626      143.01542      546.52122      626.70214      0.0030353885  -0.0016486087  -0.0030146735   0.00304       -0.0016499691  -0.0030192267   0.0030353885   18.594217     -5.9848639      23.832598      30.803522     -12.631902     -23.110693      58.359018      57.179512      59.114142      3              197260.35      1.2167647      9303.7124      20828.049     -7560.4036      431.42698     -2850.7356      24969.263     -19946.486      2172.0412      15.2         
     15400   298.75891      24831.991      18753.957      43585.948      1428.8172      1181.3923      1856.8742      1248.1849      0.0030752665  -0.0011379131  -0.0026971513   0.00308       -0.001138561   -0.0027007952   0.0030752665  -23.027676     -23.338244     -13.791458      3.8248694      1.6811761     -15.251463      58.388871      57.197722      59.1165        3              197431.99      1.2157069      9403.4074      20721.312     -7930.2644      405.89786     -2810.5552      24990.251     -19948.057      2231.6385      15.4         
     15600   296.18222      25043.073      18592.211      43635.284     -1169.9538     -609.21082     -1288.8238     -1611.8267      0.0031151429  -1.4082075e-05 -0.00076607858  0.00312       -1.4082174e-05 -0.00076637217  0.0031151429   14.279144     -7.8161417      12.101466      2.6812263      0.87827986    -2.3082044      58.454565      57.308474      59.118857      3              198044.74      1.2119456      9211.4334      20890.168     -7695.2009      401.3846      -2832.6532      25012.676     -19944.735      2235.2877      15.6         
     15800   297.72709      25031.846      18689.186      43721.032     -712.57364     -1280.1201     -117.73581     -739.86507      0.0031550177   0.00069122719  0.0010913288   0.00316        0.0006909884   0.0010907338   0.0031550177   0.69121584     21.454241      48.554805     -8.0144162      5.9000082     -24.971879      58.495794      57.415001      59.121214      3              198560.73      1.2087961      9376.2803      20841.729     -7874.9885      400.11319     -2795.8701      25029.359     -19944.776      2288.7124      15.8         
     16000   299.51707      25202.339      18801.549      44003.888     -175.8008      -514.86045     -207.90832      195.36637      0.0031948909   5.6320325e-05  0.0027326753   0.0032         5.6318739e-05  0.0027289483   0.0031948909   29.192553      4.1452422      44.308784      12.209604     -8.11211       -10.378914      58.45868       57.509136      59.123572      3              198768.02      1.2075355      9427.0013      20865.684     -7826.5727      405.2997      -2737.4646      25013.768     -19945.377      2330.9265      16           
     16200   298.30977      24999.729      18725.763      43725.492      358.74423     -201.15509      707.03271      570.35507      0.0032347625  -0.0035785717   0.0036332208   0.00324       -0.0035849901   0.0036266366   0.0032347625   13.597368      26.739689      42.937197      3.0452181     -3.1068645     -15.044362      58.246201      57.560784      59.125929      3              198231.33      1.2108048      9297.3945      20912.696     -7921.3581      405.30397     -2746.0981      24999.863     -19948.072      2305.693       16.2         
     16400   296.93295      25035.469      18639.336      43674.805     -620.42594     -426.47654     -1447.257       12.455743      0.0032746325  -0.0068119927   0.0028153019   0.00328       -0.0068353002   0.0028113463   0.0032746325  -12.121568      16.418808      26.880136      17.173523     -4.4402954     -12.492605      58.05719       57.513875      59.128287      3              197434.91      1.215689       9322.3771      20795.045     -7683.1793      401.3956      -2847.7475      24997.938     -19950.36       2199.831       16.4         
     16600   296.08421      24975.799      18586.058      43561.857     -34.651079      435.88018     -273.06314     -266.77027      0.003314501   -0.0077598089   0.00088651733  0.00332       -0.0077900729   0.0008861246   0.003314501   -33.303375     -6.0541428      16.051917      8.5713373     -2.2534334     -16.377029      58.001785      57.403254      59.130644      3              196874.96      1.2191466      9269.0982      20829.75      -7764.1696      395.02466     -2863.1475      25061.688     -19952.445      2246.0953      16.6         
     16800   296.80852      24948.77       18631.525      43580.295     -525.02778     -28.082584     -298.27913     -1248.7216      0.0033543678  -0.0072333509  -2.6822687e-05  0.00336       -0.0072596384  -2.6823047e-05  0.0033543678  -14.156011     -9.2209894     -7.4831755      10.838815     -1.3270428     -13.543086      58.03256       57.350872      59.133001      3              196807.51      1.2195644      9306.4728      20706.293     -7645.1249      411.9349      -2905.0893      25020.354     -19946.071      2169.1935      16.8         
     17000   301.29691      25048.343      18913.275      43961.618     -347.66622     -741.42494     -1713.3164      1411.7427      0.0033942331  -0.0050202922  -0.0010919058   0.0034        -0.0050329362  -0.0010925024   0.0033942331  -29.736886     -0.022833857    21.517501      6.7879381     -3.232314      -17.506549      58.161925      57.289787      59.135359      3              197044         1.2181007      9406.4458      20855.502     -7864.9875      406.41468     -2819.3041      25012.35      -19948.078      2244.968       17           
     17200   301.05792      24768.526      18898.272      43666.799      711.44793      1298.2134      940.36179     -104.23142      0.0034340967  -0.001298374   -0.0012316817   0.00344       -0.0012992176  -0.0012324408   0.0034340967   2.0819114     -4.9182193      4.6763755      9.3259781     -14.906257     -15.246864      58.379491      57.28177       59.137716      3              197761.29      1.2136826      9335.3382      20668.277     -7947.9718      413.27432     -2787.8995      25040.454     -19952.945      2299.6088      17.2         
     17400   298.13521      24969.569      18714.805      43684.374     -494.54952      143.42244     -1189.9286     -437.1424       0.0034739588   0.00082943728 -0.0012034603   0.00348        0.00082909349 -0.001204185    0.0034739588   4.1120373     -1.2969946      16.848191      14.229317     -12.67843      -1.2556013      58.503873      57.283389      59.140074      3              198196.14      1.2110198      9219.4123      20745.383     -7651.154       425.06035     -2851.0429      25030.069     -19948.159      2230.8674      17.4         
     17600   296.6096       24912.482      18619.039      43531.52       113.95054      307.05728     -309.1946       343.98895      0.0035138193   0.00098758603 -0.0020578679   0.00352        0.00098709869 -0.0020599882   0.0035138193   21.405201      14.897041      32.935322      17.444784      4.0016156     -16.010543      58.513118      57.234387      59.142431      3              198065.78      1.2118168      9293.4511      20750.268     -7739.7837      415.77052     -2853.0974      24990.62      -19944.746      2192.7764      17.6         
     17800   296.72862      24911.609      18626.51       43538.119      631.10103      397.0989       691.91273      804.29147      0.0035536782   8.5805976e-05 -0.0041894884   0.00356        8.5802295e-05 -0.0041982889   0.0035536782   7.9957235      16.029359      15.458161      5.943662      -10.515583     -10.747345      58.460404      57.112133      59.144788      3              197472.52      1.2154574      9273.2887      20716.722     -7778.9822      426.48724     -2735.322       24957.091     -19947.676      2274.0931      17.8         
     18000   300.58826      24892.494      18868.79       43761.285     -312.80772     -689.55085      264.52175     -513.39405      0.0035935355  -0.00012379039 -0.005428502    0.0036        -0.00012379805 -0.0054432899   0.0035935355  -4.1563908     -19.983117      23.87072       3.4356581     -7.1034532     -18.764345      58.448152      57.041073      59.147146      3              197193.35      1.2171782      9288.2492      20571.919     -7613.6777      399.37239     -2793.0798      24990.09      -19950.38       2246.6309      18           
     18200   296.98191      24840.97       18642.41       43483.379      77.739114      131.9411       368.38092     -267.10468      0.0036333912  -1.8984798e-05 -0.0056573154   0.00364       -1.8984979e-05 -0.0056733786   0.0036333912  -15.951249      3.7916303     -2.1125116      12.630409     -4.8886342     -5.7219451      58.454278      57.02795       59.149503      3              197176.5       1.2172822      9397.5405      20764.458     -7922.8461      402.01662     -2793.8904      24941.681     -19947.99       2199.8004      18.2         
     18400   298.66233      24981.565      18747.894      43729.459     -576.76577     -775.81525     -247.64462     -706.83744      0.0036732454   0.00061649793 -0.0055456273   0.00368        0.00061630797 -0.0055610613   0.0036732454  -1.2841062     -6.016972       0.40379315     9.987735      -9.6932571     -7.6349502      58.491426      57.034355      59.151861      3              197331.83      1.216324       9244.6454      20742.365     -7575.8397      411.40112     -2892.9317      25000.908     -19948.983      2158.9932      18.4         
     18600   299.25782      24894.208      18785.275      43679.483     -863.58521     -882.51891     -1125.0027     -583.23399      0.0037130979   0.00098112705 -0.0058979821   0.00372        0.00098064606 -0.0059154439   0.0037130979   4.7684574     -8.3065003      6.5368505     -4.0491463      0.54915636    -5.8090239      58.51274       57.014147      59.154218      3              197341.66      1.2162634      9091.1453      20691.059     -7484.4411      403.88824     -2864.2945      25000.753     -19943.902      2192.5564      18.6         
     18800   296.73879      24919.615      18627.148      43546.764      632.36503      1025.7903      154.06731      717.23744      0.0037529489   0.0015789705  -0.0043602418   0.00376        0.0015777252  -0.0043697753   0.0037529489   8.1113205     -5.9490619      4.1128848      17.952361      5.4160419     -16.072591      58.547687      57.10234       59.156575      3              197772.85      1.2136117      9421.101       20905.487     -7913.3234      396.26414     -2952.0638      25006.177     -19944.026      2110.0871      18.8         
     19000   299.96005      25050.73       18829.356      43880.085     -179.59884     -692.98538      1183.1612     -1028.9724      0.0037927982   0.00077856472 -0.0043410546   0.0038         0.00077826179 -0.0043505043   0.0037927982   14.639009      3.7783245      36.884694      12.410918     -5.5681436     -16.678298      58.500899      57.10344       59.158933      3              197626.49      1.2145105      9290.7058      20788.691     -7671.3467      394.16151     -2773.8203      24972.841     -19950.503      2248.5178      19           
     19200   298.02838      24935.75       18708.099      43643.85      -956.68986     -1720.3366     -567.2716      -582.46135      0.003832646   -5.320341e-05  -0.0027688626   0.00384       -5.3204825e-05 -0.002772703    0.003832646   -6.2657721     -9.6810913      13.555941      8.9414104     -29.603271     -10.336456      58.452278      57.193609      59.16129       3              197781.92      1.213556       9361.878       20774.202     -7764.8605      398.52052     -2865.4329      24979.436     -19947.993      2166.0101      19.2         
     19400   297.5352       24981.361      18677.141      43658.502     -1086.8914     -1034.8195     -643.74672     -1582.108       0.0038724922  -0.0022398502  -0.0012672962   0.00388       -0.0022423624  -0.0012680999   0.0038724922   2.2823497      11.345674      21.035523      10.221005     -7.7449982      1.4515353      58.324457      57.279728      59.163648      3              197654.45      1.2143387      9273.577       20824.891     -7666.0689      399.65469     -2850.3712      24951.559     -19951.881      2149.3067      19.4         
     19600   296.37476      24838.995      18604.297      43443.292      401.45322      557.48607      347.28863      299.58495      0.0039123368  -0.0039459776  -0.00089701381  0.00392       -0.0039537835  -0.00089741637  0.0039123368  -4.6074651     -2.5869471     -2.297245       5.2037077     -11.568374     -22.514786      58.224724      57.300964      59.166005      3              197397.49      1.2159194      9383.5969      20678.013     -7903.5273      404.27356     -2716.6294      24943.678     -19950.41       2276.6384      19.6         
     19800   301.27128      25031.557      18911.666      43943.223     -541.00775     -1293.6694      256.9683      -586.32212      0.0039521798  -0.0047811722   0.00022049716  0.00396       -0.0047926386   0.00022047285  0.0039521798  -3.3372231      0.74018167     17.491192      28.923375     -5.6957036     -18.310279      58.175903      57.365056      59.168362      3              197460.44      1.2155318      9374.6496      20810.606     -7703.1911      405.02659     -2854.5497      24944.729     -19945.713      2144.4659      19.8         
     20000   301.22872      24962.698      18908.994      43871.692      99.004506      605.87849      792.43556     -1101.3005      0.0039920213  -0.0047395426   0.00095327669  0.004         -0.0047508098   0.00095282261  0.0039920213  -15.978273      16.15911       13.702453      5.5172173     -3.2997766     -26.824692      58.178336      57.407083      59.17072       3              197621.24      1.2145427      9335.8437      20778.023     -7897.7375      399.93473     -2751.862       25045.93      -19947.433      2346.6344      20           
     20200   297.71213      25036.588      18688.248      43724.836      292.5214      -99.89176       661.99609      315.45985      0.0040318611  -0.0040840846   6.211013e-05   0.00404       -0.0040924472   6.2108202e-05  0.0040318611  -0.88574434     17.389901      19.892369      2.8045893     -8.1271319     -1.0272661      58.216651      57.355972      59.173077      3              197583.2       1.2147765      9259.4218      20835.304     -7817.8769      405.94599     -2723.09        25025.744     -19948.861      2353.7931      20.2         
     20400   297.14853      24936.344      18652.868      43589.213     -43.125108     -770.61344      644.50323     -3.2651174      0.0040716994  -0.0016369113  -0.0014023606   0.00408       -0.0016382525  -0.0014033448   0.0040716994  -22.374636      4.1898782      1.9521736     -0.52888579    -5.0276409     -2.5324846      58.359702      57.271982      59.175435      3              197786.54      1.2135277      9250.6421      20831.81      -7782.7316      409.03632     -2787.9872      24962.737     -19947.162      2227.5877      20.4         
     20600   296.00014      25064.922      18580.781      43645.702     -758.83868     -614.47469     -1067.1968     -594.84449      0.004111536    0.001167678   -0.002238429    0.00412        0.0011669968  -0.002240938    0.004111536    7.4477439     -16.053443      14.360458      3.0416033     -17.88379      -15.113938      58.523645      57.224031      59.177792      3              198183.99      1.211094       9382.2946      20741.703     -7713.1591      420.45218     -2812.5772      24998.552     -19952.344      2233.6313      20.6         
     20800   301.81186      25081.754      18945.599      44027.354     -254.10129     -123.83383     -77.943075     -560.52696      0.0041513711   0.0027478759  -0.0031049311   0.00416        0.0027441074  -0.0031097614   0.0041513711   18.04215      -3.6932065      24.445721      14.735323      2.2844194     -11.241459      58.616016      57.174335      59.180149      3              198332.31      1.2101883      9293.3662      20802.254     -7706.9719      403.26404     -2776.8929      25017.722     -19950.987      2289.8418      20.8         
     21000   299.09444      25052.149      18775.019      43827.168     -203.63683     -397.26585      240.09616     -453.74081      0.0041912046   0.0024865613  -0.0032706459   0.0042         0.0024834749  -0.0032760061   0.0041912046   15.326223     -11.579921      32.688667     -1.7403283     -11.319219      1.1896189      58.600741      57.164831      59.182507      3              198255.57      1.2106568      9291.7058      20766.99      -7560.6289      411.41273     -2875.1022      24966.703     -19948.931      2142.6699      21           
     21200   297.81939      24886.073      18694.981      43581.053     -209.99771      260.38929     -542.96137     -347.42106      0.0042310365   0.00076379678 -0.0031523278   0.00424        0.00076350523 -0.0031573069   0.0042310365   9.3447985      16.726794      33.454722      19.06849      -7.7132905     -14.211853      58.500036      57.171617      59.184864      3              197946.24      1.2125486      9302.7492      20787.021     -7723.2276      393.30842     -2922.7408      24997.167     -19948.205      2126.2212      21.2         
     21400   298.63032      24731.943      18745.885      43477.828      399.19618      819.35174      549.65203     -171.41523      0.0042708669  -0.00097131534 -0.0036127107   0.00428       -0.00097178738 -0.0036192523   0.0042708669   4.4652733     -2.5422917      14.394211      12.036076     -11.099848     -22.456421      58.398609      57.145213      59.187222      3              197519.65      1.2151674      9287.1535      20828.394     -8038.7818      414.75334     -2762.3581      24951.512     -19948.73       2240.4243      21.4         
     21600   296.89562      24902.204      18636.993      43539.197     -433.44886      361.43939     -1430.6462     -231.13977      0.0043106956  -0.0025425634  -0.0023353768   0.00432       -0.0025458012  -0.0023381081   0.0043106956  -11.075267     -27.131575      18.376506      3.6788905     -5.4465542     -14.386931      58.306762      57.218471      59.189579      3              197469.68      1.2154749      9246.8547      20722.037     -7693.7307      401.09292     -2808.7721      24984.216     -19949.494      2225.95        21.6         
     21800   302.3889       24839.613      18981.822      43821.434     -71.559591      293.25013     -471.81457     -36.114333      0.0043505227  -0.0030238876  -0.0010928463   0.00436       -0.0030284688  -0.0010934439   0.0043505227  -10.488128      12.721913      10.219134      23.681172     -0.50747812    -23.634404      58.278626      57.289733      59.191936      3              197628.08      1.2145007      9370.4238      20729.811     -7885.7804      405.75725     -2858.1267      25028.075     -19950.547      2219.401       21.8         
     22000   300.57644      24786.445      18868.049      43654.494     -369.44117     -450.74247      344.97866     -1002.5597      0.0043903483  -0.0029556471  -0.0012824569   0.0044        -0.0029600237  -0.0012832799   0.0043903483   5.6206017      9.2466521      24.638677      5.5861805      1.264539      -13.57468       58.282615      57.278858      59.194294      3              197611.96      1.2145998      9292.7232      20707.076     -7820.269       390.25336     -2880.8515      25045.558     -19948.045      2216.6619      22           
     22200   297.07238      24920.174      18648.089      43568.262      309.20829      506.05108     -351.57934      773.15312      0.0044301723  -0.0031948104  -0.0020257782   0.00444       -0.0031999248  -0.0020278329   0.0044301723  -11.225411     -0.34182731     16.293826      4.3420187      0.26673894    -9.9021454      58.268634      57.236227      59.196651      3              197425.38      1.2157477      9334.3678      20713.043     -7832.8555      392.16125     -2706.6061      24967.245     -19947.182      2313.4567      22.2         
     22400   297.85236      24777.602      18697.05       43474.652      240.39856      156.49046     -44.324329      609.02954      0.0044699947  -0.0020807363  -0.00096988582  0.00448       -0.002082904   -0.00097035646  0.0044699947  -21.864423     -26.080659      9.1953319      5.2118209      6.379017      -15.654165      58.333758      57.296785      59.199009      3              197863.02      1.2130586      9384.2217      20589.855     -7969.8164      415.32835     -2682.3522      24991.866     -19951.5        2358.0132      22.4         
     22600   295.04015      25092.35       18520.52       43612.869     -693.42425     -1092.7655     -754.28075     -233.22655      0.0045098155  -0.0006588728   0.0016670554   0.00452       -0.00065908995  0.0016656674   0.0045098155   26.695051      16.270578      36.643041     -2.0327636      0.67865869    -8.2566703      58.416873      57.44802       59.201366      3              198675.86      1.2080956      9397.7724      20724.891     -7744.0518      394.03339     -2747.1518      25019.311     -19952.454      2319.7053      22.6         
     22800   302.10237      25120.444      18963.835      44084.279     -678.00794     -1736.3207      130.25978     -427.96287      0.0045496347  -0.0016530942   0.002727751    0.00456       -0.0016544621   0.0027240375   0.0045496347   33.239794      24.162329      48.701993      6.3362313      7.975383      -23.640172      58.358756      57.508853      59.203723      3              198696.29      1.2079714      9381.2776      20852.361     -7733.1819      391.41897     -2765.2679      24945.176     -19951.34       2228.5684      22.8         
     23000   302.4124       25122.926      18983.297      44106.223     -237.65412     -380.91097     -167.674       -164.37738      0.0045894523  -0.0038245868   0.0019418514   0.0046        -0.0038319193   0.0019399685   0.0045894523  -9.3129001      11.861591      35.389704      19.538437      18.225469     -19.534061      58.23182       57.46378       59.206081      3              198116.6       1.2115059      9476.5763      20866.9       -7909.083       412.25007     -2789.2234      25015.18      -19949.674      2276.2821      23           
     23200   301.49324      24853.167      18925.599      43778.766     -95.397801     -511.39402      796.2786      -571.07798      0.0046292684  -0.0055106125  -2.6166922e-06  0.00464       -0.0055258519  -2.6166956e-06  0.0046292684  -19.917672     -6.0830333      34.3675        13.799441     -7.8347275     -13.59975       58.133263      57.35226       59.208438      3              197405.32      1.2158712      9288.528       20730.046     -7821.4387      405.8184      -2813.6469      25012.41      -19948.55       2250.2134      23.2         
     23400   300.30822      24693.693      18851.211      43544.904      710.10862      617.08926      731.98273      781.25386      0.0046690828  -0.0052354847  -0.00099195359  0.00468       -0.0052492379  -0.0009924459   0.0046690828  -23.421176     -7.6291309      21.65825       17.210291     -8.3764197     -8.6350922      58.149346      57.295519      59.210796      3              197272.43      1.2166902      9203.0818      20726.341     -7846.4637      395.72195     -2843.3045      25008.395     -19950.079      2215.0115      23.4         
     23600   298.78625      24851.529      18755.673      43607.202      52.914844      361.14665     -94.954967     -107.44715      0.0047088957  -0.0030360146  -0.0019460004   0.00472       -0.0030406327  -0.0019478963   0.0047088957  -9.8664187     -11.244027      24.808298      10.441592      3.6072434     -17.272942      58.277917      57.240802      59.213153      3              197527.66      1.2151181      9134.6135      20782.731     -7801.95        415.39189     -2766.4678      25036.135     -19948.925      2320.7425      23.6         
     23800   295.62048      24981.549      18556.948      43538.497     -546.37794     -215.76598     -851.21294     -572.1549       0.004748707   -0.00032606861 -0.001289981    0.00476       -0.00032612178 -0.0012908138   0.004748707    5.9593088     -7.7126119      25.606741      18.091837     -12.250948     -9.8565827      58.436328      57.278427      59.21551       3              198202.66      1.2109799      9364.3515      20800.402     -7824.3929      398.46771     -2806.6478      24997.476     -19948.108      2242.7204      23.8         
     24000   297.35449      24970.551      18665.798      43636.349     -1009.9855     -1114.4213     -842.89732     -1072.6379      0.0047885167   0.00058419274 -0.00036614455  0.0048         0.00058402217 -0.00036621159  0.0047885167   29.06622       4.651931       41.803574     -1.499981       4.2271686     -19.242421      58.489537      57.331411      59.217868      3              198574.55      1.208712       9256.8732      20867.254     -7735.6211      415.87701     -2881.9564      24997.213     -19949.089      2166.1678      24           
     24200   300.54684      25027.105      18866.19       43893.295      381.8393       1321.9628     -462.36983      285.92496      0.0048283249  -0.00096363961  0.00040336208  0.00484       -0.00096410421  0.00040328075  0.0048283249   19.051344     -5.6368848      43.803064      4.3571881     -0.95155854    -25.978094      58.399058      57.375544      59.220225      3              198427.89      1.2096054      9392.3196      20930.397     -7961.6669      415.02537     -2830.7725      25024.473     -19942.671      2251.0295      24.2         
     24400   299.77854      25004.357      18817.962      43822.319     -250.11847      464.43055      34.758488     -1249.5445      0.0048681314  -0.0029344399   9.5489652e-05  0.00488       -0.0029387538   9.5485093e-05  0.0048681314   5.642662       21.949763      42.797103      17.331025     -11.042351     -15.978618      58.283854      57.357887      59.222583      3              197983.39      1.2123211      9267.6864      20806.413     -7682.4252      413.05991     -2863.2629      25011.755     -19948.869      2199.6236      24.4         
     24600   298.74449      24942.303      18753.051      43695.354     -441.07296     -1444.3545     -66.018429      187.15405      0.0049079364  -0.0045261948  -0.001233253    0.00492       -0.004536469   -0.0012340141   0.0049079364  -18.929941      14.058583      22.538129      9.7135736     -4.2923951     -13.790366      58.190808      57.28168       59.22494       3              197412.55      1.2158266      9300.5221      20676.182     -7669.915       405.74116     -2832.8582      25009.35      -19946.719      2229.7733      24.6         
     24800   297.61109      24878.415      18681.905      43560.32       641.39287      1183.4593      594.64014      146.07914      0.0049477397  -0.0041498357  -0.0021814107   0.00496       -0.0041584702  -0.0021837935   0.0049477397  -14.541564     -23.20412       33.125652      1.7748658      1.7002596     -13.065823      58.212808      57.227301      59.227297      3              197307.56      1.2164736      9294.1659      20848.998     -7895.0052      392.42427     -2867.2145      25051.1       -19946.054      2237.8315      24.8         
     25000   293.84056      24979.692      18445.218      43424.91      -866.76953     -2477.9703     -252.78876      130.45042      0.0049875415  -0.0032642523  -0.0029765311   0.005         -0.0032695916  -0.0029809698   0.0049875415  -9.6794515      0.824948       13.182938      11.946117     -4.6414617     -2.979033       58.264575      57.181699      59.229655      3              197333.51      1.2163136      9191.2989      20796.314     -7603.9815      408.45855     -2857.4021      24988.98      -19943.977      2187.6016      25           
     25200   296.60982      24781.122      18619.052      43400.175     -259.02588     -11.536846     -804.06926      38.528475      0.0050273417  -0.002266988   -0.0023590924   0.00504       -0.0022695615  -0.0023618794   0.0050273417   5.8570226     -17.683804      5.9495641      10.010664     -3.7578352     -15.122346      58.32287       57.217111      59.232012      3              197661.14      1.2142975      9402.5183      20742.728     -7928.2073      395.09916     -2841.5938      24958.211     -19947.633      2168.9847      25.2         
     25400   301.2292       24830.981      18909.024      43740.004     -604.59892     -572.28781     -448.66773     -792.84123      0.0050671403  -0.0013787352  -0.0016482234   0.00508       -0.0013796866  -0.0016495832   0.0050671403  -1.127119       11.347         19.530029      10.215813     -7.4605723     -6.4327651      58.374794      57.257881      59.23437       3              197985.96      1.2123053      9294.8913      20811.875     -7900.7525      403.85752     -2866.451       25031.754     -19944.193      2221.1097      25.4         
     25600   298.19348      24885.869      18718.463      43604.333     -881.8675      -649.70417      300.03994     -2295.9383      0.0051069374  -0.0011359671  -0.0026524067   0.00512       -0.0011366128  -0.0026559305   0.0051069374   10.490817      5.6855074      27.38974       19.637583     -1.902641      -20.336291      58.388985      57.200288      59.236727      3              197842.78      1.2131827      9265.2226      20770.613     -7827.222       404.65573     -2768.393       24992.644     -19951.652      2272.5997      25.6         
     25800   297.40907      24906.347      18669.223      43575.57       725.4061       1416.9381      1043.4567     -284.17652      0.0051467328  -0.0018801214  -0.0042041325   0.00516       -0.001881891   -0.0042129948   0.0051467328   18.78802       1.5602712      23.125639      3.5246848      0.12632455    -13.275888      58.345485      57.111293      59.239084      3              197395.65      1.2159307      9305.8283      20817.547     -7823.5633      402.69774     -2874.7318      25025.899     -19947.331      2203.8367      25.8         
     26000   297.5215       24859.592      18676.281      43535.873     -181.81272     -407.96269     -183.2811       45.805648      0.0051865267  -0.0036106723  -0.0053247557   0.0052        -0.0036172065  -0.0053389828   0.0051865267  -15.498362     -10.812054      4.2475629      5.9461732     -3.1033698     -16.906796      58.244325      57.047023      59.241442      3              196839.48      1.2193663      9216.6758      20783.02      -7686.6747      411.61032     -2917.8745      25001.253     -19948.418      2134.9603      26           
     26200   300.09675      24827.205      18837.937      43665.142      321.43844     -118.65615      336.78548      746.18599      0.005226319   -0.0047996427  -0.0060730371   0.00524       -0.004811198   -0.006091553    0.005226319   -22.031563     -23.134068      2.9934282      18.020945      0.48403878    -23.971319      58.174823      57.004107      59.243799      3              196464.51      1.2216936      9238.9301      20800.113     -7759.1         412.27765     -2928.2761      25013.37      -19950.11       2134.9841      26.2         
     26400   295.09026      24965.811      18523.665      43489.476     -152.07942     -44.632959      112.84712     -524.45241      0.0052661097  -0.0053661646  -0.003414177    0.00528       -0.0053806142  -0.0034200186   0.0052661097   7.0749069     -33.49847       17.626316      9.6723414      7.6870449     -21.841992      58.141707      57.156599      59.246157      3              196885.77      1.2190796      9239.7131      20898.018     -7744.6076      413.11334     -2924.531       25033.096     -19948.991      2159.5739      26.4         
     26600   298.60621      24974.065      18744.372      43718.436     -321.89889     -332.54155     -116.42874     -516.72639      0.0053058988  -0.0057277606   0.00020089338  0.00532       -0.0057442271   0.0002008732   0.0053058988  -6.9769511      16.753989      31.779406      8.457023      -10.753588      2.8982293      58.12057       57.363932      59.248514      3              197535.99      1.2150669      9211.8616      20849.306     -7654.4245      412.43569     -2915.3654      25023.764     -19953.512      2154.8863      26.6         
     26800   294.13238      24974.276      18463.536      43437.813     -206.19213     -788.1717       75.703124      93.892187      0.0053456863  -0.0057222834   0.0024171827   0.00536       -0.0057387184   0.002414266    0.0053456863   10.502108      7.4715252      56.820708      8.7318641     -0.35174251    -8.1858067      58.12089       57.491042      59.250871      3              197982.67      1.2123255      9299.4894      20765.01      -7738.5522      405.61795     -2829.6155      25023.448     -19951.121      2242.711       26.8         
     27000   298.1561       24997.468      18716.117      43713.585     -219.34816     -1.5633138     -1177.5443      521.06314      0.0053854723  -0.0061363448   0.003933451    0.0054        -0.0061552495   0.0039257353   0.0053854723  -7.1916807      14.953528      43.368115      23.905985     -0.2396272     -11.834357      58.096686      57.578003      59.253229      3              198207.45      1.2109506      9300.1067      20743.206     -7822.8735      426.22394     -2694.946       24996.349     -19950.598      2350.8052      27           
     27200   299.04012      25123.144      18771.609      43894.753     -144.90605      731.1683      -448.68437     -717.20208      0.0054252566  -0.0056556645   0.003619244    0.00544       -0.0056717183   0.0036127103   0.0054252566  -9.7245223      5.52618        32.41741       5.2878969     -13.422217     -2.0973536      58.124784      57.559983      59.255586      3              198249.14      1.210696       9290.935       20841.845     -7670.6019      405.86632     -2804.6741      25007.778     -19948.004      2255.0993      27.2         
     27400   299.83474      24844.895      18821.49       43666.385     -861.01764     -699.30761     -1423.3951     -460.3502       0.0054650394  -0.0061364382   0.0026380498   0.00548       -0.0061553435   0.0026345763   0.0054650394   33.103511      16.532979      60.133894      14.129794     -1.4398133     -6.658336       58.09668       57.503709      59.257944      3              197967.43      1.2124188      9189.4171      20844.235     -7864.3486      421.32583     -2817.8276      25019.986     -19947.894      2254.2654      27.4         
     27600   295.75335      25097.929      18565.289      43663.219     -670.71544     -1197.7255     -515.93842     -298.48241      0.0055048206  -0.0073682448   0.00083884959  0.00552       -0.0073955244   0.00083849795  0.0055048206  -19.396395      0.85713949     17.33351       4.308734      -9.5228837     -15.304972      58.024675      57.40052       59.260301      3              197375.11      1.2160573      9208.3647      21010.989     -7742.9239      426.46616     -2862.8629      25005.345     -19947.45       2195.0329      27.6         
[...]
    744000   299.62267      25325.965      18808.177      44134.142     -1240.5245     -888.32127     -617.81629     -2215.4359      0.13871792    -0.068428125   -0.045087217    0.1488        -0.070881932   -0.04613527     0.13871792    -10.036037      7.4194848      155.38047      8.8070572     -19.74119       7.6249467      54.455395      54.76655       67.704505      3              201917.46      1.1887008      9257.9381      20757.929     -7638.4971      415.21018     -2535.5333      25016.432     -19947.514      2533.3849      744          
    744200   299.36436      25164.235      18791.963      43956.197     -116.78774     -67.356852      198.83549     -481.84187      0.13875274    -0.067495774   -0.044448275    0.14884       -0.069881596   -0.045466383    0.13875274    -0.38826878     12.993788      132.19605     -6.2724394      3.7175489     -5.9408799      54.509896      54.803195      67.706862      3              202261.82      1.1866769      9239.1136      21002.581     -8074.5298      409.97734     -2469.7527      25005.286     -19948.441      2587.0925      744.2        
    744400   298.66015      25320.88       18747.758      44068.637     -264.69718     -110.51715      234.49583     -918.07024      0.13878755    -0.067332483   -0.044813464    0.14888       -0.069706501   -0.045848632    0.13878755     23.02978       6.7897785      143.3819       22.918115     -17.530459      2.7506785      54.519442      54.78225       67.70922       3              202226.97      1.1868815      9306.8437      20942.872     -7949.7695      394.83        -2461.2709      25028.244     -19940.869      2626.1034      744.4        
    744600   297.5259       25287.571      18676.557      43964.128     -277.99116     -648.96804      1755.6804     -1940.6858      0.13882237    -0.067489738   -0.046496507    0.14892       -0.069875123   -0.047612191    0.13882237    -23.041084      7.7243231      145.0989       8.891484      -3.3009693     -4.0578422      54.510249      54.685724      67.711577      3              201843.64      1.1891355      9303.5631      20861.839     -7950.7246      413.08436     -2408.0799      25013.476     -19945.587      2659.8091      744.6        
    744800   299.25548      25016.994      18785.128      43802.122      130.19559      198.88853      721.9666      -530.26835      0.13885719    -0.066102227   -0.04705675     0.14896       -0.068388297   -0.048199926    0.13885719     18.339929     -2.4956071      117.77335      19.997795     -9.2323034      0.41536036     54.591357      54.653592      67.713935      3              202032.23      1.1880255      9191.8862      20871.624     -8146.249       389.06328     -2396.8511      25051.749     -19944.228      2710.6696      744.8        
    745000   297.42172      25361.241      18670.018      44031.258     -596.1031       550.7425      -275.36134     -2063.6904      0.138892      -0.066880957   -0.047500775    0.149         -0.069222495   -0.048665986    0.138892       18.425941      5.4581542      136.46428      8.5551402     -9.4438528     -8.5283471      54.545836      54.628126      67.716292      3              201776.73      1.1895298      9318.5979      20854.031     -7859.0343      407.44328     -2459.3077      25042.287     -19942.777      2640.2026      745          
    745200   299.77495      25335.618      18817.736      44153.354     -757.53924      587.11101     -580.71157     -2279.0172      0.13892681    -0.068624092   -0.048315529    0.14904       -0.071092315   -0.049521737    0.13892681    -6.7311254     -8.9130615      146.50129      22.082118      10.424353     -25.575314      54.44394       54.581398      67.718649      3              201234.52      1.1927349      9293.5079      20855.22      -7811.5009      409.50296     -2515.435       25049.888     -19945.565      2588.8879      745.2        
    745400   298.35429      25145.627      18728.558      43874.184     -223.46337      567.34446      492.46236     -1730.1969      0.13896162    -0.070196582   -0.048119181    0.14908       -0.072782094   -0.049315442    0.13896162     6.9130062     -14.407095      134.26692      13.296864      1.5405085     -6.3427205      54.35202       54.592659      67.721007      3              200943.21      1.194464       9297.9321      20955.41      -8106.8573      415.38524     -2486.8909      25017.657     -19947.009      2583.7569      745.4        
    745600   298.70206      25128.827      18750.389      43879.216      82.016289      300.8632       1665.1823     -1719.9967      0.13899643    -0.070432137   -0.046724501    0.14912       -0.073035464   -0.047851331    0.13899643    -28.471222     -10.650399      121.34395      9.212158      -10.096453     -12.577679      54.33825       54.672648      67.723364      3              201193.65      1.1929772      9377.8546      20840.129     -8124.2075      407.70783     -2450.0214      25025.605     -19948.24       2627.3434      745.6        
    745800   294.86216      25219.386      18509.347      43728.733      30.993606      10.458532      804.79906     -722.27678      0.13903124    -0.069441734   -0.045162467    0.14916       -0.071970587   -0.046214075    0.13903124     0.46433966     14.072155      141.95506      1.2378213     -10.953162     -13.261112      54.396145      54.762234      67.725722      3              201745.06      1.1897165      9355.2091      20921.166     -8106.5805      401.41448     -2462.1031      25057.121     -19946.84       2648.1775      745.8        
    746000   298.8755       25297.308      18761.276      44058.584     -473.06884     -82.0226        66.730198     -1403.9141      0.13906605    -0.068539844   -0.045309557    0.1492        -0.071001863   -0.046368135    0.13906605    -11.660672      18.95192       138.32853     -3.5061175      2.5982486     -13.652222      54.448865      54.753798      67.728079      3              201916.51      1.1887063      9414.5533      20867.657     -7990.1411      417.36102     -2517.2368      25052.562     -19947.447      2587.8778      746          
    746200   298.75988      25341.362      18754.017      44095.38      -1515.3315     -398.75861     -1709.8806     -2437.3554      0.13910085    -0.067616969   -0.046340264    0.14924       -0.070011572   -0.047448342    0.13910085     3.7944429      2.4495632      115.52541      7.7834365     -15.495453     -14.624769      54.502812      54.694684      67.730436      3              201905.39      1.1887719      9292.5182      20926.638     -7841.2831      404.71448     -2544.4479      25053.871     -19950.648      2558.7751      746.2        
    746400   297.47169      25322.775      18673.154      43995.929     -550.96408     -11.958085     -210.0854      -1430.8488      0.13913566    -0.067736795   -0.047169655    0.14928       -0.070140096   -0.048318413    0.13913566     19.045916     -13.170474      121.76459      18.204578     -2.0241477     -9.2845065      54.495807      54.647117      67.732794      3              201710.89      1.1899181      9352.9011      20878.71      -8050.5637      421.84901     -2424.2247      25088.632     -19944.529      2719.879       746.4        
    746600   298.32736      25166.001      18726.867      43892.868     -735.40491     -403.94774     -344.86036     -1457.4066      0.13917046    -0.068560587   -0.046440621    0.14932       -0.071024133   -0.047553581    0.13917046     1.7518589     -9.7870756      134.23889      13.537616      0.27484872    -4.5110525      54.447652      54.688929      67.735151      3              201693.86      1.1900186      9252.4307      20840.015     -7929.02        416.4043      -2491.607       25021.902     -19944.124      2586.1716      746.6        
    746800   297.15058      25319.379      18652.997      43972.376     -608.24356      655.10677     -688.06103     -1791.7764      0.13920527    -0.069135592   -0.046028687    0.14936       -0.071641654   -0.047121678    0.13920527     4.2161719      13.301567      151.30458      8.3667649     -7.4112852     -0.81461832     54.41404       54.712554      67.737509      3              201663.44      1.1901981      9207.0686      20843.013     -7704.8693      419.32632     -2533.0713      25036.336     -19948.424      2554.8407      746.8        
    747000   299.64863      25153.615      18809.807      43963.422     -185.74969     -14.848192      85.154627     -627.55549      0.13924007    -0.07013545    -0.045016015    0.1494        -0.072716349   -0.046060708    0.13924007    -3.1715363     -24.983492      132.80306      26.618875      12.239155     -6.7490659      54.355593      54.770633      67.739866      3              201667.7       1.190173       9292.1942      20979.557     -8053.4646      416.55942     -2497.8248      24967.679     -19951.086      2518.7685      747          
    747200   299.15602      25043.923      18778.884      43822.807     -230.26385      5.5437258      10.623105     -706.95839      0.13927487    -0.070500221   -0.042710778    0.14944       -0.073108709   -0.043649716    0.13927487    -8.5143526     -8.0101673      143.58499      11.177349     -8.8543109     -14.460876      54.33427       54.902844      67.742223      3              202082.23      1.1877315      9333.7117      20825.28      -8158.3004      409.74139     -2440.7711      25022.339     -19948.078      2633.4905      747.2        
    747400   299.44729      25396.11       18797.168      44193.278     -771.65175     -879.16522     -879.20565     -556.58438      0.13930967    -0.069876572   -0.041413238    0.14948       -0.072437984   -0.042295202    0.13930967    -17.133516      3.9104094      129.10227      26.954842      12.79254      -5.872808       54.370726      54.977261      67.744581      3              202498.96      1.1852873      9304.2032      20987.834     -7984.3849      402.38026     -2407.8758      25040.174     -19946.221      2686.0773      747.4        
    747600   296.13079      25360.863      18588.982      43949.845     -299.60476     -891.55918      542.09647     -549.35158      0.13934446    -0.069405961   -0.041703014    0.14952       -0.071932145   -0.042597543    0.13934446     20.101661      27.534427      164.9376       14.517126      6.1960386     -1.7799998      54.398236      54.960642      67.746938      3              202547.22      1.1850049      9268.0361      21038.304     -7939.2059      410.4104      -2482.79        25013.318     -19947.209      2583.3186      747.6        
    747800   299.53219      25058.795      18802.498      43861.293      994.95083      405.64521      2268.9324      310.27489      0.13937926    -0.069941117   -0.041666949    0.14956       -0.07250738    -0.042559909    0.13937926    -7.0225325     -17.410902      152.07031      3.4919534     -2.2379546     -7.9182569      54.366953      54.96271       67.749296      3              202445.4       1.1856008      9251.5726      20939.766     -8181.3403      412.81429     -2380.1997      24965.932     -19949.751      2635.9818      747.8        
    748000   297.23732      25111.328      18658.442      43769.771     -1060.9049     -306.5684      -1265.729      -1610.4172      0.13941406    -0.069710964   -0.042120498    0.1496        -0.07225995    -0.04303329     0.13941406     3.3768845      14.472824      158.40757      3.2016878     -4.8123786     -21.678815      54.380407      54.936698      67.751653      3              202406.71      1.1858275      9237.7215      20775.277     -7889.1276      412.37444     -2531.4651      25054.451     -19947.903      2575.0831      748          
    748200   300.1636       25227.448      18842.134      44069.581     -364.79051     -143.54073      602.89535     -1553.7261      0.13944885    -0.070392107   -0.04451327     0.14964       -0.072992402   -0.045534404    0.13944885     15.210841      25.374216      146.36218      1.179762      -0.50345396    -3.5097194      54.34059       54.799467      67.75401       3              201760.29      1.1896268      9238.8672      20816.391     -7808.5097      398.2983      -2482.9445      25011.949     -19946.604      2582.4009      748.2        
    748400   301.23556      25196.541      18909.423      44105.964     -178.17278     -42.620036      832.4371      -1324.3354      0.13948364    -0.071057704   -0.047048876    0.14968       -0.073708656   -0.048191663    0.13948364    -13.677785     -13.129187      150.65073      12.469916     -20.736745      7.2740401      54.301682      54.654044      67.756368      3              201087.79      1.1936052      9395.827       20724.645     -7951.725       411.38946     -2458.11        25017.173     -19942.659      2616.4043      748.4        
    748600   297.42826      25295.251      18670.428      43965.679     -954.45964     -369.58196     -261.39843     -2232.3985      0.13951843    -0.070080144   -0.047829273    0.14972       -0.072656873   -0.049010925    0.13951843    -28.792101     -22.454427      131.18378      8.712461      -1.3065437      1.719535       54.358826      54.609286      67.758725      3              201141.55      1.1932862      9376.7134      20807.979     -7794.9431      409.87031     -2527.5355      24968.846     -19945.678      2495.6317      748.6        
    748800   296.22008      25155.162      18594.587      43749.749     -189.43624      516.62433      167.38921     -1252.3223      0.13955322    -0.067911819   -0.047775154    0.14976       -0.070327854   -0.048954089    0.13955322     6.480602       5.4250684      134.32149      23.880325     -4.4015854     -8.5013675      54.485576      54.61239       67.761083      3              201629.03      1.1904012      9346.4546      20840.825     -7978.5121      407.95057     -2473.7361      24958.578     -19946.398      2538.4438      748.8        
    749000   295.00515      25323.914      18518.323      43842.236     -519.51531      459.53643     -56.841685     -1961.2407      0.13958801    -0.066653213   -0.048101697    0.1498        -0.068978457   -0.049297074    0.13958801    -3.9403819      4.4245407      151.9528       16.720942     -5.0193071     -4.2135358      54.559149      54.593662      67.76344       3              201839.08      1.1891624      9303.8605      20891.777     -7847.5716      401.70563     -2458.3256      24977.103     -19944.635      2574.1424      749          
    749200   298.34001      25011.273      18727.661      43738.934     -277.97932     -303.79776     -49.713285     -480.42692      0.1396228     -0.06643725    -0.04868855     0.14984       -0.068747098   -0.049913773    0.1396228      20.664892     -7.1863903      132.99535      8.1798427      14.155571     -5.8662262      54.571773      54.560005      67.765797      3              201768.34      1.1895793      9372.9785      20711.594     -8023.7694      393.25964     -2469.7105      24976.373     -19949.453      2557.2096      749.2        
    749400   299.53077      25351.632      18802.409      44154.041     -291.82212      785.65092      18.923266     -1680.0406      0.13965759    -0.066381299   -0.04779212     0.14988       -0.068687168   -0.048971907    0.13965759     0.44080798    -11.706765      133.12922      8.4899965     -10.701946     -8.4271111      54.575043      54.611417      67.768155      3              201977.59      1.1883469      9460.0968      20857.644     -7921.6231      418.18853     -2516.7311      25006.591     -19952.534      2537.3259      749.4        
    749600   297.73829      25303.748      18689.89       43993.638     -721.38766      413.84482     -589.89678     -1988.111       0.13969237    -0.067649112   -0.046864714    0.14992       -0.070046046   -0.047998428    0.13969237     24.415604     -0.23390927     136.13912      22.007053     -9.2249485     -5.5076948      54.500933      54.664606      67.770512      3              201906.79      1.1887636      9302.305       20810.46      -7783.8605      411.85318     -2480.5589      24990.416     -19946.866      2562.9908      749.6        
    749800   297.67518      25279.196      18685.928      43965.124     -560.93698      95.878136     -134.86607     -1643.823       0.13972716    -0.069879246   -0.0455715      0.14996       -0.072440858   -0.046642547    0.13972716     8.3117084     -7.8333547      142.2044       21.838022     -20.973421     -12.02586       54.37057       54.738775      67.77287       3              201704.15      1.1899579      9385.1997      20743.981     -7806.4887      418.32395     -2459.0327      24946.829     -19949.617      2538.18        749.8        
    750000   297.99509      25088.792      18706.01       43794.802     -456.31135     -46.525827     -432.45271     -889.95553      0.13976194    -0.070531725   -0.044012336    0.15          -0.073142604   -0.04501027     0.13976194    -27.527253     -6.5301632      122.91321      18.191493      12.781732     -1.4800211      54.332429      54.828197      67.775227      3              201898.95      1.1888097      9232.671       20809.514     -7945.6801      412.72839     -2509.8029      25036.73      -19947.368      2579.5592      750          
WARNING: Bond/angle/dihedral extent > half of periodic box length (../domain.cpp:1172)
Loop time of 19381.7 on 16 procs for 750000 steps with 21060 atoms

Performance: 3.343 ns/day, 7.178 hours/ns, 38.696 timesteps/s, 814.944 katom-step/s
98.9% CPU use with 16 MPI tasks x no OpenMP threads

MPI task timing breakdown:
Section |  min time  |  avg time  |  max time  |%varavg| %total
---------------------------------------------------------------
Pair    | 11488      | 12727      | 13213      | 409.8 | 65.66
Bond    | 2842.7     | 2955.9     | 3056.8     | 111.1 | 15.25
Kspace  | 976.11     | 1563.4     | 2913.1     |1285.0 |  8.07
Neigh   | 1395.2     | 1395.4     | 1395.6     |   0.3 |  7.20
Comm    | 224.64     | 226.84     | 228.69     |   6.5 |  1.17
Output  | 98.322     | 98.327     | 98.343     |   0.0 |  0.51
Modify  | 264.35     | 347.01     | 386.76     | 251.2 |  1.79
Other   |            | 68.23      |            |       |  0.35

Nlocal:        1316.25 ave        1380 max        1211 min
Histogram: 1 0 0 0 1 3 5 5 0 1
Nghost:        13010.9 ave       13178 max       12911 min
Histogram: 4 2 2 1 2 1 1 1 1 1
Neighs:         789069 ave      846703 max      669184 min
Histogram: 1 0 0 1 1 2 2 3 5 1

Total # of neighbors = 12625107
Ave neighs/atom = 599.48276
Ave special neighs/atom = 5.8048433
Neighbor list builds = 43652
Dangerous builds = 0

#-------------------Wrap up-------------------
write_restart  ${myid}.restart
write_restart  tensile_3_EPON_862_pxld_88.2_replicate_1_FF_PCFF-class2xe.restart
System init for write_restart ...
PPPM initialization ...
  using 12-bit tables for long-range coulomb (../kspace.cpp:342)
  G vector (1/distance) = 0.1804282
  grid = 15 15 16
  stencil order = 5
  estimated absolute RMS force accuracy = 0.022580626
  estimated relative force accuracy = 6.8000883e-05
  using double precision KISS FFT
  3d grid and FFT values/proc = 1521 256
Generated 66 of 66 mixed pair_coeff terms from sixthpower/sixthpower mixing rule
write_data     ${myid}.data
write_data     tensile_3_EPON_862_pxld_88.2_replicate_1_FF_PCFF-class2xe.data
System init for write_data ...
PPPM initialization ...
  using 12-bit tables for long-range coulomb (../kspace.cpp:342)
  G vector (1/distance) = 0.1804282
  grid = 15 15 16
  stencil order = 5
  estimated absolute RMS force accuracy = 0.022580626
  estimated relative force accuracy = 6.8000883e-05
  using double precision KISS FFT
  3d grid and FFT values/proc = 1521 256
Generated 66 of 66 mixed pair_coeff terms from sixthpower/sixthpower mixing rule
Total wall time: 5:23:02
