thermo_style   custom step temp pe ke etotal press pxx pyy pzz v_etrue v_eengx v_eengy v_eengz v_etruex v_etruey v_etruez                f_sxx_ave f_syy_ave f_szz_ave f_sxy_ave f_sxz_ave f_syz_ave lx ly lz v_dir vol density ebond eangle edihed                eimp evdwl ecoul elong epair v_Time

restart        ${nsteps} rst1.a.${myid} rst2.a.${myid}
restart        200 rst1.a.${myid} rst2.a.${myid}
restart        200 rst1.a.tensile_2_AroCy_L10_pxld_97_replicate_1_FF_PCFF-class2xe rst2.a.${myid}
restart        200 rst1.a.tensile_2_AroCy_L10_pxld_97_replicate_1_FF_PCFF-class2xe rst2.a.tensile_2_AroCy_L10_pxld_97_replicate_1_FF_PCFF-class2xe
dump           6 all atom 10000 dump.${myid} #every picosecond
dump           6 all atom 10000 dump.tensile_2_AroCy_L10_pxld_97_replicate_1_FF_PCFF-class2xe 
dump_modify    6 scale no sort id

#-------------------Run-------------------
run            ${steps}
run            750000

CITE-CITE-CITE-CITE-CITE-CITE-CITE-CITE-CITE-CITE-CITE-CITE-CITE

Your simulation uses code contributions which should be cited:

- Type Label Framework: https://doi.org/10.1021/acs.jpcb.3c08419

@Article{Gissinger24,
 author = {Jacob R. Gissinger, Ilia Nikiforov, Yaser Afshar, Brendon Waters, Moon-ki Choi, Daniel S. Karls, Alexander Stukowski, Wonpil Im, Hendrik Heinz, Axel Kohlmeyer, and Ellad B. Tadmor},
 title = {Type Label Framework for Bonded Force Fields in LAMMPS},
 journal = {J. Phys. Chem. B},
 year =    2024,
 volume =  128,
 number =  13,
 pages =   {3282–-3297}
}

CITE-CITE-CITE-CITE-CITE-CITE-CITE-CITE-CITE-CITE-CITE-CITE-CITE

PPPM initialization ...
  using 12-bit tables for long-range coulomb (../kspace.cpp:342)
  G vector (1/distance) = 0.1811641
  grid = 16 16 15
  stencil order = 5
  estimated absolute RMS force accuracy = 0.028424569
  estimated relative force accuracy = 8.5599745e-05
  using double precision KISS FFT
  3d grid and FFT values/proc = 1521 256
Generated 45 of 45 mixed pair_coeff terms from sixthpower/sixthpower mixing rule
Neighbor list info ...
  update: every = 1 steps, delay = 0 steps, check = yes
  max neighbors/atom: 5000, page size: 100000
  master list distance cutoff = 14
  ghost atom cutoff = 14
  binsize = 7, bins = 10 9 8
  1 neighbor lists, perpetual/occasional/extra = 1 0 0
  (1) pair lj/class2/coul/long, perpetual
      attributes: half, newton on
      pair build: half/bin/newton
      stencil: half/bin/3d
      bin: standard
WARNING: Inconsistent image flags (../domain.cpp:1051)
Per MPI rank memory allocation (min/avg/max) = 20.25 | 20.42 | 20.64 Mbytes
   Step          Temp          PotEng         KinEng         TotEng         Press           Pxx            Pyy            Pzz          v_etrue        v_eengx        v_eengy        v_eengz        v_etruex       v_etruey       v_etruez      f_sxx_ave      f_syy_ave      f_szz_ave      f_sxy_ave      f_sxz_ave      f_syz_ave          Lx             Ly             Lz           v_dir          Volume        Density         E_bond        E_angle        E_dihed        E_impro         E_vdwl         E_coul         E_long         E_pair         v_Time    
         0   298           -26292.619      17821.59      -8471.029      -79.011277      255.17916      1532.9737     -2025.1867      0             -6.6056086e-16 -1.1381419e-16  3.895747e-16  -6.6613381e-16 -1.110223e-16   4.4408921e-16  0              0              0              0              0              0              64.539949      62.430065      54.716803      2              220466.76      1.2480961      9212.8267      11927.769     -2965.0037      900.38564     -905.31771     -17785.707     -26677.572     -45368.597      0            
       200   298.77496     -26468.801      17867.935     -8600.8655      357.50248      23.42314       1083.7682     -34.683922      3.99992e-05    0.00058118477  4e-05         -0.0008762693   0.00058101595  3.99992e-05   -0.00087665345 -11.012831     -2.2754916      10.662694      0.45402855    -3.4397798      4.783893       64.577459      62.432562      54.668857      2              220410.41      1.2484152      9266.3609      11911.63      -3162.2679      875.10056     -913.14798     -17768.894     -26677.583     -45359.625      0.2          
       400   298.59549     -26231.57       17857.202     -8374.3679     -310.97839     -595.2568      -836.25439      498.57602      7.99968e-05    0.0020262717   8e-05         -0.0030443039   0.0020242215   7.99968e-05   -0.0030489473   9.1583797      13.572612      0.88061079    -0.063567968    5.055427      -10.23408       64.670725      62.43506       54.550229      2              220258.58      1.2492758      9302.9056      12027.516     -3169.6674      892.35203     -841.38755     -17765.192     -26678.097     -45284.677      0.4          
       600   298.99853     -26306.593      17881.306     -8425.2873     -199.90723     -291.76124     -744.18253      436.22207      0.0001199928   0.0021373971   0.00012       -0.0044679653   0.0021351161   0.0001199928  -0.0044779764   1.4604662     -10.962499     -1.121776       4.0896767     -0.38311429     1.9972648      64.677897      62.437557      54.472331      2              219977.24      1.2508735      9416.2148      11994.074     -3234.8004      869.35775     -906.16677     -17767.605     -26677.668     -45351.439      0.6          
       800   296.96658     -26410.069      17759.787     -8650.282       133.85394     -215.22706      757.95383     -141.16496      0.0001599872   0.0025954111   0.00016       -0.0056942614   0.0025920489   0.0001599872  -0.0057105356  -4.8249956     -3.6434738     -2.6793446      14.531581     -0.35756193    -18.497408      64.707457      62.440054      54.405231      2              219815.48      1.2517941      9356.5355      11930.732     -3237.4571      858.28087     -879.91653     -17761.56      -26676.685     -45318.161      0.8          
      1000   299.48823     -26224.838      17910.592     -8314.2459      755.30861      1079.0394      353.77102      833.11544      0.00019998     0.0036525898   0.0002        -0.0053187711   0.0036459352   0.00019998    -0.0053329661  -6.7978487     -17.770716     -18.964238      14.781912      5.2234568     -9.3880249      64.775687      62.442551      54.425777      2              220139.16      1.2499535      9417.6318      11862.349     -3109.6061      886.97673     -842.1207      -17762.653     -26677.416     -45282.19       1            
      1200   302.2056      -26214.81       18073.101     -8141.7092     -58.324653     -103.92029     -281.00299      209.94932      0.0002399712   0.0040659115   0.00024       -0.0041094854   0.004057668    0.0002399712  -0.0041179525   29.26514      -19.384935      5.569996       11.244456      9.0695345      4.9510789      64.802363      62.445048      54.491945      2              220506.38      1.2478718      9223.1836      11874.904     -2957.1292      882.42138     -798.1912      -17762.84      -26677.159     -45238.191      1.2          
      1400   295.85732     -26268.517      17693.449     -8575.069      -57.49434      -65.652371      970.48154     -1077.3122      0.00027996081  0.001926565    0.00028       -0.0024096572   0.0019247115   0.00027996081 -0.0024125651   8.2675053      1.2127688     -8.975019       4.7002782      3.1719273      5.0654064      64.664289      62.447546      54.584955      2              220420.93      1.2483556      9368.6322      12006.802     -3177.7669      899.05542     -936.96798     -17751.647     -26676.626     -45365.241      1.4          
      1600   301.23404     -26514.264      18014.998     -8499.2652     -10.047842      429.98127     -78.256257     -381.86854      0.00031994881 -0.00095372908  0.00032       -0.0011261164  -0.00095418417  0.00031994881 -0.0011267509  -9.5216498     -24.136393      4.4892192      3.5554246     -0.69053809     19.668955      64.478395      62.450043      54.655186      2              220078.86      1.2502959      9325.3255      11865.305     -3296.6156      878.23164     -840.228       -17768.972     -26677.31      -45286.51       1.6          
      1800   299.52627     -26159.906      17912.867     -8247.0393     -323.33793     -166.03928     -322.78502     -481.1895       0.00035993522 -0.0030539011   0.00036        0.00019670541 -0.0030585738   0.00035993522  0.00019668607 -4.2467427     -17.481282      12.281147     -2.9599451      15.877671     -6.0757509      64.34285       62.45254       54.727566      2              219915.85      1.2512227      9191.7112      11948.39      -2831.5549      911.96468     -922.96471     -17778.926     -26678.526     -45380.417      1.8          
      2000   297.14184     -26328.771      17770.268     -8558.5027      449.63189      126.17071      672.14522      550.57973      0.00039992002 -0.0040070528   0.0004         0.000483017   -0.0040151026   0.00039992002  0.00048290039 -8.8607547     -8.9236963      5.7998948     -0.3875412      7.9586869      7.3969153      64.281334      62.455037      54.743232      2              219777.28      1.2520116      9364.5598      11907.509     -3133.4817      889.57943     -911.73383     -17767.544     -26677.659     -45356.937      2            
      2200   299.70076     -26420.102      17923.302     -8496.7999      1218.0053      937.4037       1329.7697      1386.8425      0.00043990323 -0.0047059637   0.00044       -6.192284e-06  -0.0047170716   0.00043990323 -6.1923031e-06  1.3084581     -4.6101311     -2.3920938      21.713988      18.486883      11.198952      64.236226      62.457534      54.716464      2              219524.44      1.2534536      9518.8645      11863.469     -3310.4504      875.89191     -912.3132      -17778.14      -26677.424     -45367.877      2.2          
      2400   298.26008     -26246.11       17837.143     -8408.9662     -525.46385     -710.34457     -1302.0779      436.0309       0.00047988484 -0.0050407977   0.00048       -0.00010670724 -0.0050535454   0.00047988484 -0.00010671293 -15.278777      3.6894883     -1.2687356      2.3904048      1.5339267      3.8408842      64.214616      62.460032      54.710965      2              219437.31      1.2539513      9362.0021      11811.235     -2874.266       885.79574     -974.07995     -17779.271     -26677.526     -45430.877      2.4          
      2600   298.66825     -26523.675      17861.554     -8662.1212      188.51765     -136.23717      335.92615      365.86395      0.00051986485 -0.0042789627   0.00052       -0.0011336547  -0.0042881437   0.00051986485 -0.0011342978  -7.2245474     -0.24876461     10.150184      4.1121914     -10.000411     -2.3630281      64.263785      62.462529      54.654773      2              219388.55      1.25423        9316.1954      11948.56      -3246.0272      896.56751     -994.66857     -17765.46      -26678.841     -45438.97       2.6          
      2800   299.81684     -26428.801      17930.244     -8498.5572      321.3282      -287.81144      1168.9516      82.844443      0.00055984326 -0.0034857001   0.00056       -0.0032840284  -0.0034917893   0.00055984326 -0.0032894327   1.424716      -31.367773     -9.9319651      20.86842      -4.8638116      11.172908      64.314982      62.465026      54.537112      2              219099.41      1.2558852      9372.4842      11992.294     -3279.3807      891.64125     -942.40594     -17785.526     -26677.908     -45405.84       2.8          
      3000   299.75432     -26220.795      17926.505     -8294.2895     -736.66178     -383.38796     -680.37157     -1146.2258      0.00059982007 -0.00099644438  0.0006        -0.0048764146  -0.00099694116  0.00059982007 -0.0048883431  -10.388109     -28.098847     -1.8169004      23.364009      0.14547969     3.2495746      64.475639      62.467523      54.449981      2              219304.57      1.2547103      9173.882       11938.673     -2849.6902      899.96823     -923.32456     -17782.479     -26677.824     -45383.628      3            
      3200   297.42211     -26334.128      17787.029     -8547.0989     -68.158395      92.105442      261.43102     -558.01165      0.00063979529  0.0032201885   0.00064       -0.0056336102   0.0032150148   0.00063979529 -0.0056495388   20.856277      2.5936666      3.9306063     -1.0695123     -6.3346698     -11.986095      64.74778       62.47002       54.40855       2              220071.44      1.2503381      9300.4307      11971.354     -3086.1108      870.57847     -904.79885     -17809.443     -26676.139     -45390.381      3.2          
      3400   300.88855     -26351.931      17994.337     -8357.5944      619.14887      163.10867      457.95778      1236.3802      0.0006797689   0.0035959719   0.00068       -0.0073647329   0.0035895219   0.0006797689  -0.0073919865   22.446231     -2.7622884      10.456492      13.960976      0.56233472    -2.9576163      64.772033      62.472518      54.313829      2              219779.39      1.2519996      9277.2186      12026.296     -3242.4287      887.65275     -842.3858      -17780.448     -26677.836     -45300.67       3.4          
      3600   300.17769     -26288.252      17951.824     -8336.4283      62.865396      405.38038     -726.40327      509.61908      0.00071974092  0.0032584654   0.00072       -0.0085276571   0.0032531681   0.00071974092 -0.0085642256  -2.7061613      3.2779854     -21.534693      17.683263     -7.2559314     -4.0425062      64.75025       62.475015      54.250197      2              219456.85      1.2538397      9438.8387      11906.252     -3204.1293      878.10238     -870.91205     -17759.535     -26676.868     -45307.316      3.6          
      3800   297.47568     -26305.656      17790.233     -8515.4232      157.65721      778.00388     -40.72872      -264.30354      0.00075971135  0.0036498662   0.00076       -0.0077431469   0.0036432216   0.00075971135 -0.0077732808  -16.017411     -29.206313     -24.241114      3.8844959      7.7407717     -2.6187239      64.775511      62.477512      54.293123      2              219724.96      1.2523097      9307.9297      11986.25      -3117.5852      877.209       -918.76595     -17763.611     -26677.082     -45359.459      3.8          
      4000   298.70805     -26256.469      17863.934     -8392.5348      339.10494      1034.5516      449.94331     -467.1801       0.00079968017  0.0034947006   0.0008        -0.0066058772   0.0034886083   0.00079968017 -0.0066277926   14.132017      8.1585805      1.7261692      16.209379      2.6593448     -5.6766003      64.765497      62.480009      54.355351      2              219951.58      1.2510194      9274.1354      11886.205     -3007.2881      890.46075     -829.58964     -17792.958     -26677.434     -45299.982      4            
      4200   298.91643     -26308.116      17876.396     -8431.7203     -172.03295     -621.34545     -148.7235       253.9701       0.0008396474   0.0029445069   0.00084       -0.0051020723   0.0029401803   0.0008396474  -0.0051151323   9.2818673     -17.020165     -1.1016689      1.2583396      5.2174561      10.815318      64.729987      62.482506      54.437634      2              220172.57      1.2497638      9418.9379      11877.134     -3156.532       903.13986     -900.4576      -17773.158     -26677.181     -45350.796      4.2          
      4400   297.08266     -26486.595      17766.729     -8719.8665      243.87157     -391.03037      445.00259      677.64249      0.00087961303  0.0017880782   0.00088       -0.0045307142   0.0017864814   0.00087961303 -0.004541009    0.3397701      9.3057365      13.343298     -2.7893297     -1.4330374      1.9764961      64.655352      62.485004      54.468897      2              220053.79      1.2504384      9368.1247      11884.509     -3266.8805      904.44769     -940.54979     -17758.431     -26677.816     -45376.796      4.4          
      4600   298.76971     -26271.614      17867.622     -8403.9926      260.05254      305.98098     -151.16777      625.3444       0.00091957706  0.00033055127  0.00092       -0.0043195639   0.00033049665  0.00091957706 -0.0043289201  -8.7525703     -7.4079931      4.8773829      15.543924      4.4222473      3.0478192      64.561283      62.487501      54.480451      2              219789.02      1.2519447      9288.8389      11972.981     -3109.8167      897.60456     -859.99278     -17783.919     -26677.31      -45321.222      4.6          
      4800   301.15109     -26238.32       18010.038     -8228.2827      130.62072      190.06991     -60.687903      262.48014      0.00095953949 -0.00029676811  0.00096       -0.0036233317  -0.00029681215  0.00095953949 -0.0036299119   0.48717096    -14.730052     -0.055749182    4.1100484      6.4019697      2.3190163      64.520796      62.489998      54.518546      2              219813.57      1.2518049      9177.1537      12095.875     -3097.3561      884.41943     -872.66384     -17747.507     -26678.241     -45298.412      4.8          
      5000   297.58971     -26331.269      17797.052     -8534.2169     -100.22726     -1077.8689      44.53926       732.64789      0.00099950033 -0.0011672628   0.001         -0.0039137326  -0.0011679445   0.00099950033 -0.0039214113   0.82157201    -7.3205469      21.017236      10.6017        6.5622742      5.0633284      64.464614      62.492495      54.502656      2              219566.93      1.2532111      9276.5541      12000.301     -3077.3015      902.05362     -1053.4731     -17701.881     -26677.523     -45432.877      5            
      5200   297.23618     -26274.012      17775.91      -8498.1011      1153.8212     -45.946359      1500.0994      2007.3106      0.0010394596  -0.00095914261  0.00104       -0.0063687352  -0.00095960288  0.0010394596  -0.0063891021  -12.511874     -28.663678     -11.028577      8.6743088      6.8708304      2.6133565      64.478046      62.494993      54.368326      2              219080.16      1.2559955      9303.6401      11969.013     -3029.9295      880.21687     -914.75103     -17804.152     -26678.049     -45396.952      5.2          
      5400   300.03679     -26237.219      17943.398     -8293.8219      1038.2455      114.63187      970.60954      2029.4951      0.0010794172   0.00035176507  0.00108       -0.0072205852   0.00035170321  0.0010794172  -0.0072467798  -12.603337     -14.513587     -26.093462     -4.879307      -2.8402088     -7.6555554      64.562652      62.49749       54.321716      2              219188.32      1.2553757      9371.0323      12013.89      -3113.9254      901.82369     -971.6403      -17760.127     -26678.273     -45410.04       5.4          
      5600   298.78367     -26328.485      17868.456     -8460.0291     -308.58509     -1233.4842      241.83083      65.898111      0.0011193733   0.0023704692   0.00112       -0.0071031079   0.0023676641   0.0011193733  -0.0071284551  -1.5011503     -0.76166011     5.3406331      12.274048      19.520256      24.129547      64.692939      62.499987      54.328144      2              219665.41      1.2526492      9203.2072      11934.249     -2997.3419      894.31056     -896.62412     -17788.47      -26677.816     -45362.91       5.6          
      5800   299.05572     -26307.438      17884.726     -8422.7123     -449.0721      -637.62456     -71.029374     -638.56237      0.0011593277   0.0033018192   0.00116       -0.0068853644   0.0032963802   0.0011593277  -0.0069091779   32.798987     -18.980027     -7.9892146      19.50667       6.729225      -1.8261853      64.753048      62.502484      54.340058      2              219926.52      1.251162       9238.6463      11929.65      -2922.0497      864.95806     -991.74965     -17749.411     -26677.483     -45418.643      5.8          
      6000   298.63422     -26414.946      17859.518     -8555.4273      341.29177      268.41411     -189.15975      944.62095      0.0011992806   0.0027348849   0.0012        -0.0052269786   0.0027311519   0.0011992806  -0.0052406871   1.4619253     -14.672148      7.6146737      4.9189439      6.6567481      3.2712674      64.716458      62.504981      54.4308        2              220178.08      1.2497325      9497.1279      11933.628     -3406.9584      909.32632     -900.0625      -17770.824     -26677.184     -45348.07       6            
      6200   295.93133     -26351.113      17697.875     -8653.2374     -152.89124      153.97093     -112.60736     -500.0373       0.0012392318   0.0010140836   0.00124       -0.0041301712   0.0010135697   0.0012392318  -0.0041387239   0.59173904    -15.447236      4.659799       10.486861      7.9149562      2.458537       64.605398      62.507479      54.490814      2              220051.37      1.2504521      9387.4649      11939.089     -3200.7137      897.66609     -905.84503     -17790.414     -26678.36      -45374.619      6.2          
      6400   297.29224     -26255.997      17779.263     -8476.7345     -456.17043     -985.5071       668.263       -1051.2672      0.0012791815  -0.00018918581  0.00128       -0.0037363589  -0.00018920371  0.0012791815  -0.0037433565  -14.041018     -8.2121643     -6.6155897      6.0658882      12.330449     -8.1003377      64.527739      62.509976      54.512362      2              219882.56      1.2514122      9248.3281      11807.02      -2896.447       898.01402     -874.83756     -17760.953     -26677.122     -45312.913      6.4          
      6600   301.09092     -26313.069      18006.439     -8306.6295     -124.70598     -1235.8414      384.3035       477.41999      0.0013191296   4.916441e-05   0.00132       -0.0036179984   4.9163201e-05  0.0013191296  -0.0036245592  -4.2920443      10.107267      20.111887      5.97185        2.4504071      8.3661499      64.543122      62.512473      54.518838      2              219969.89      1.2509153      9358.5018      11871.572     -3197.1851      900.6         -826.90469     -17742.783     -26676.869     -45246.557      6.6          
      6800   297.84529     -26255.631      17812.338     -8443.2932      59.417102     -492.53978      727.69722     -56.906136      0.001359076    0.00017938822  0.00136       -0.0030692171   0.00017937213  0.001359076   -0.0030739368   13.849134     -1.7191564     -13.74809       11.592189     -1.4734166     -1.9717431      64.551527      62.51497       54.548866      2              220128.5       1.250014       9350.254       12030.909     -3176.0741      915.02605     -960.86299     -17739.97      -26674.913     -45375.746      6.8          
      7000   296.55308     -26314.771      17735.058     -8579.7128     -411.56349      116.80036     -181.167       -1170.3238      0.0013990209  -0.0020652003   0.0014        -0.0024733884  -0.0020673358   0.0013990209  -0.0024764523   1.886098      -6.6426282      1.9546823      8.7837622      2.1243197     -4.9611372      64.406661      62.517467      54.581467      2              219774.53      1.2520272      9236.8298      11988.248     -3105.5078      884.08748     -904.78788     -17737.168     -26676.473     -45318.429      7            
      7200   300.45452     -26430.905      17968.38      -8462.5254      28.491118     -743.23794      590.55333      238.15797      0.0014389642  -0.0035761831   0.00144       -0.0020803685  -0.0035825929   0.0014389642  -0.0020825355  -6.366347       4.9681078      6.5630341      10.247015     -6.8280315      11.638306      64.309142      62.519965      54.602972      2              219537         1.2533819      9200.2328      11978.55      -3132.642       904.23575     -949.0781      -17755.354     -26676.85      -45381.282      7.2          
      7400   299.20427     -26270.663      17893.61      -8377.0537      754.28238      935.59045      500.54539      826.7113       0.0014789059  -0.0040762216   0.00148       -0.0028151844  -0.004084552    0.0014789059  -0.0028191545  -14.166115     -4.4319431      7.0106675      20.340542      18.974223     -6.7786325      64.27687       62.522462      54.562765      2              219274.01      1.2548852      9418.9439      11970.47      -3189.6633      910.34117     -944.6419      -17759.31      -26676.804     -45380.755      7.4          
      7600   299.23024     -26325.256      17895.163     -8430.0927     -898.51148     -1076.7999     -881.54683     -737.18771      0.001518846   -0.0031796926   0.00152       -0.0024179231  -0.0031847586   0.001518846   -0.0024208509  -11.791153      5.0404886     -17.276932      3.5757555      2.4307713     -24.993865      64.334732      62.524959      54.584502      2              219567.61      1.2532072      9254.2278      11876.935     -2927.5357      894.08931     -992.53765     -17753.103     -26677.332     -45422.972      7.6          
      7800   297.93221     -26357.263      17817.535     -8539.7273     -220.21062     -683.53064      613.00823     -590.10946      0.0015587845  -0.0020545579   0.00156       -0.002501091   -0.0020566714   0.0015587845  -0.0025042239  -13.190431     -13.874505      16.297845     -3.4990852      4.65084       -4.8712163      64.407348      62.527456      54.579952      2              219805.89      1.2518486      9235.5805      11979.602     -3126.5321      900.09037     -933.74749     -17735.358     -26676.898     -45346.003      7.8          
      8000   294.65786     -26363.896      17621.716     -8742.1793      259.5858       719.18731      694.95782     -635.38772      0.0015987214   0.00044249912  0.0016        -0.0041833913   0.00044240124  0.0015987214  -0.0041921661   4.8997223      12.07729       14.698802     -3.2986444      6.6475767      7.6077718      64.568508      62.529953      54.487901      2              219993.04      1.2507837      9325.5737      11942.268     -3177.4254      903.66103     -914.61797     -17765.111     -26678.244     -45357.973      8            
      8200   300.77194     -26261.827      17987.363     -8274.4639     -601.20687     -1226.7806      15.449546     -592.28956      0.0016386567   0.0022742408   0.00164       -0.0063815561   0.0022716587   0.0016386567  -0.0064020053   19.490685      2.2265858     -3.5049676      16.680456      12.196166     -3.1151857      64.686728      62.532451      54.367625      2              219918.11      1.2512098      9356.2811      11914.788     -3019.7565      910.37085     -962.00527     -17783.974     -26677.531     -45423.511      8.2          
      8400   298.24502     -26324.295      17836.243     -8488.0516      361.0118       573.71487     -206.39667      715.71721      0.0016785904   0.0032952952   0.00168       -0.0080666843   0.0032898776   0.0016785904  -0.0080993961   2.3646055      3.5648059      0.077983514    1.4769838      11.772272     -0.22694412     64.752627      62.534948      54.27542       2              219777.58      1.2520099      9401.1486      11850.498     -3160.9071      941.28013     -905.88671     -17772.979     -26677.448     -45356.314      8.4          
      8600   297.82469     -26449.332      17811.106     -8638.226       1121.1962      415.9056       1970.1017      977.58137      0.0017185225   0.0039811591   0.00172       -0.0092635081   0.0039732553   0.0017185225  -0.0093066813  -2.2556935     -22.70629      -15.776479      1.3884497      16.901205      13.904247      64.796893      62.537445      54.209934      2              219671.23      1.252616       9355.5625      11847.757     -3198.4992      911.50701     -904.03153     -17785.072     -26676.555     -45365.658      8.6          
      8800   297.75616     -26128.072      17807.007     -8321.0645     -1439.2375     -1506.8238     -1327.0621     -1483.8266      0.001758453    0.0038092635   0.00176       -0.0090157362   0.0038020266   0.001758453   -0.0090566239   20.25958      -2.4181591     -12.323922      8.4522369      4.3234069     -7.7501644      64.785799      62.539942      54.223491      2              219697.32      1.2524673      9203.4808      11934.661     -2764.111       917.17698     -981.37987     -17761.051     -26676.849     -45419.28       8.8          
      9000   297.86473     -26177.15       17813.5       -8363.6504     -209.56298     -258.58683     -423.41345      53.311324      0.0017983819   0.0025050812   0.0018        -0.0081161117   0.0025019487   0.0017983819  -0.0081492266   4.9175913      22.301506     -6.3910983     -5.6888077      7.2764451      26.443602      64.701627      62.542439      54.272716      2              219619.84      1.2529091      9306.7219      12088.977     -3135.7797      919.39394     -918.90735     -17760.32      -26677.236     -45356.464      9            
      9200   299.59055     -26540.619      17916.711     -8623.9079      485.47564      327.43178      1080.3765      48.618628      0.0018383093   0.00091102075  0.00184       -0.0062380506   0.00091060602  0.0018383093  -0.0062575886  -3.5507454     -12.76464       4.1369812      12.346774      2.5164981      0.53632059     64.598746      62.544937      54.375477      2              219694.57      1.2524829      9299.2161      11890.539     -3226.7639      886.14585     -912.93632     -17799.097     -26677.722     -45389.755      9.2          
      9400   297.20679     -26473.224      17774.152     -8699.0721      469.57402     -91.042167      1624.0944     -124.33019      0.001878235    0.00013295431  0.00188       -0.0046527671   0.00013294547  0.001878235   -0.0046636249  -22.263086     -25.052601      1.0394551      10.01431       10.525386     -2.5316307      64.54853       62.547434      54.462219      2              219882.76      1.251411       9314.9576      11974.8       -3298.5334      891.24948     -907.1437      -17772.107     -26676.448     -45355.698      9.4          
      9600   298.90941     -26144.805      17875.976     -8268.8289      29.034788     -73.520431     -8.981597       169.60639      0.0019181592   0.00056632938  0.00192       -0.0052242638   0.00056616908  0.0019181592  -0.005237958   -4.784473      -10.041134      7.0684242      19.962348      13.660831     -14.649906      64.5765        62.549931      54.430948      2              219860.51      1.2515376      9331.7786      11908.821     -2967.6644      901.51329     -863.7974      -17778.744     -26676.713     -45319.253      9.6          
      9800   297.68565     -26279.305      17802.79      -8476.5147     -495.62279     -438.52524     -10.370511     -1037.9726      0.0019580817   0.0012838904   0.00196       -0.0052049996   0.0012830669   0.0019580817  -0.0052185928   4.3703383      1.5100877     -5.3497238      7.5284807      4.0132624      4.3045039      64.622811      62.552428      54.432002      2              220031.23      1.2505666      9228.7139      11954.749     -2953.3714      876.80194     -943.33213     -17766.364     -26676.502     -45386.198      9.8          
     10000   297.60412     -26436.261      17797.915     -8638.346       204.08371      889.3806      -421.55125      144.42178      0.0019980027   0.0014412841   0.002         -0.0045826803   0.0014402465   0.0019980027  -0.0045932129   9.1560941     -4.8624313     -2.1544527      13.601113     -3.3968842      4.2989612      64.632969      62.554925      54.466054      2              220212.28      1.2495384      9316.0243      11963.431     -3265.2269      896.26586     -932.09474     -17737.994     -26676.666     -45346.755      10           
     10200   301.46178     -26156.085      18028.618     -8127.4677      290.44889      73.78459       283.52172      514.04037      0.002037922   -0.00042597685  0.00204       -0.0037759481  -0.0004260676   0.002037922   -0.003783095    9.3402536     -16.485048      2.8399204      19.016659     -5.9940001      4.1549808      64.512457      62.557423      54.510195      2              219988.59      1.250809       9362.8462      11894.905     -2993.5296      922.25613     -897.18085     -17769.028     -26676.354     -45342.563      10.2         
     10400   296.3529      -26175.602      17723.087     -8452.515       736.45099      1333.3419      130.45911      745.55198      0.0020778398  -0.0020665853   0.00208       -0.0025472353  -0.0020687237   0.0020778398  -0.002550485   -6.5243605      10.182577      2.5264032      15.710547      6.6320783     -12.221826      64.406572      62.55992       54.577427      2              219907.19      1.251272       9391.5198      12122.941     -3256.1687      911.72365     -886.43148     -17782.292     -26676.894     -45345.617      10.4         
     10600   297.70383     -26381.374      17803.878     -8577.4961      300.68028      825.65667     -609.46426      685.84844      0.002117756   -0.0039243519   0.00212       -0.0019720712  -0.0039320724   0.002117756   -0.0019740183  -5.767168       22.782176      29.227135      7.3557756      2.8010951      14.210867      64.286672      62.562417      54.608898      2              219633.14      1.2528333      9207.5195      12016.102     -3133.8527      885.05558     -933.71258     -17746.096     -26676.39      -45356.198      10.6         
     10800   299.33566     -26501.684      17901.467     -8600.2169     -530.07657     -945.18465      95.381637     -740.4267       0.0021576706  -0.0033331716   0.00216       -0.0024515235  -0.003338739    0.0021576706  -0.0024545334  -16.291464      23.913833     -8.7263212      10.465056      10.028183      3.6005833      64.324826      62.564914      54.582664      2              219666.69      1.2526419      9146.2647      11892.367     -3082.1985      889.34573     -929.78097     -17740.355     -26677.327     -45347.463      10.8         
     11000   297.42417     -26345.923      17787.153     -8558.7702      29.297843     -176.94499      1089.9908     -825.15224      0.0021975835  -0.00079238328  0.0022        -0.0036045273  -0.00079269738  0.0021975835  -0.0036110393  -20.225684     -17.27009       1.5554661      11.623725      0.71254083     4.3549752      64.488809      62.567411      54.519575      2              219980.91      1.2508526      9318.0652      12102.191     -3313.8348      896.81337     -930.78175     -17741.345     -26677.031     -45349.157      11           
     11200   299.41889     -26169.407      17906.445     -8262.9622     -780.13314     -1471.8653     -488.83696     -379.69714      0.0022374949   0.0021580933   0.00224       -0.0065040846   0.0021557679   0.0022374949  -0.0065253284   4.2578672      20.56204      -0.42287185     15.036648      15.006669     -6.7186981      64.679232      62.569909      54.360921      2              219997.21      1.25076        9309.3144      12038.836     -3074.3395      910.14071     -932.78356     -17744.335     -26676.24      -45353.358      11.2         
     11400   296.05273     -26230.32       17705.135     -8525.1851     -1010.149      -681.10364     -983.62786     -1365.7154      0.0022774047   0.0032987487   0.00228       -0.0078949219   0.0032933197   0.0022774047  -0.0079262519   35.717544     -18.390975     -8.4428057      2.5507326      4.9460014     -3.673119       64.75285       62.572406      54.284818      2              219948.06      1.2510395      9266.3417      11999.271     -3010.4301      890.66357     -964.05523     -17734.838     -26677.273     -45376.166      11.4         
     11600   299.0699      -26507.242      17885.574     -8621.6678      261.68228      571.83918      1344.6223     -1131.4146      0.002317313    0.0020333977   0.00232       -0.0073093062   0.0020313331   0.002317313   -0.0073361501   15.657094      7.8379395     -19.778107     -7.3952638     -4.8191089      3.0115811      64.671184      62.574903      54.316861      2              219809.1       1.2518304      9403.9977      12054.811     -3443.3373      868.24585     -946.50838     -17767.202     -26677.248     -45390.958      11.6         
     11800   298.19207     -26436.047      17833.076     -8602.9704      59.008566      271.47908      675.66147     -770.11485      0.0023572196  -0.000170113    0.00236       -0.0063651701  -0.00017012747  0.0023572196  -0.0063855142  -6.0580297      21.363047     -1.2670167      5.5282576      10.80827      -5.702584       64.52897       62.5774        54.368522      2              219543.09      1.2533471      9345.1576      11888.716     -3122.8442      899.14681     -1004.8669     -17764.167     -26677.188     -45446.223      11.8         
     12000   298.19291     -26436.119      17833.126     -8602.9929      14.344253     -273.99978     -108.72128      425.75382      0.0023971246  -0.0020157971   0.0024        -0.0060025499  -0.0020178316   0.0023971246  -0.0060206376  -4.7801783     -13.516173      4.8307667      0.6307863     -2.2979092      8.6987708      64.40985       62.579897      54.388363      2              219226.53      1.2551569      9186.6826      11909.046     -3033.3119      900.34077     -961.20171     -17760.672     -26677.003     -45398.877      12           
     12200   299.83652     -26299.447      17931.421     -8368.0266      241.1894       64.964853      916.03595     -257.4326       0.002437028   -0.0032606058   0.00244       -0.0049609398  -0.0032659332   0.002437028   -0.0049732861   5.5308025     -1.5339684     -9.2455077      3.7404257      9.1928056      16.546397      64.32951       62.582395      54.445357      2              219191.28      1.2553588      9376.9489      12000.866     -3223.1002      938.42995     -982.94418     -17732.655     -26676.993     -45392.592      12.2         
     12400   297.93142     -26352.947      17817.488     -8535.4586     -606.65579     -54.456518     -383.93048     -1381.5804      0.0024769299  -0.0035958873   0.00248       -0.0033090848  -0.0036023681   0.0024769299  -0.0033145719  -19.200092     -44.208484     -2.7572909      7.3459817     -4.600852       0.89882007     64.307871      62.584892      54.535741      2              219490.06      1.25365        9193.9503      12019.97      -3135.8505      906.29581     -921.50286     -17737.231     -26678.579     -45337.313      12.4         
     12600   297.98089     -26472.287      17820.447     -8651.84        806.88804      303.7149       1557.2428      559.70644      0.0025168301  -0.0022891911   0.00252       -0.0019377583  -0.0022918153   0.0025168301  -0.0019396381  -8.792388      -15.087024     -0.58146151     11.091944      20.054917      1.4668317      64.392205      62.587389      54.610775      2              220089.07      1.2502379      9312.9133      11849.721     -3211.775       891.3556      -861.01738     -17776.124     -26677.36      -45314.501      12.6         
     12800   297.89933     -26421.084      17815.569     -8605.5146     -249.33787     -285.06211     -114.53758     -348.41393      0.0025567288  -0.0015006219   0.00256       -0.00076355696 -0.001501749    0.0025567288  -0.00076384861  5.3140006     -19.513296      15.372494      12.605632     -0.54132441    -6.4578618      64.443099      62.589886      54.675024      2              220530.96      1.2477328      9331.6559      11989.258     -3271.3477      894.90292     -946.32221     -17741.925     -26677.306     -45365.553      12.8         
     13000   300.08055     -26335.162      17946.015     -8389.1472      533.59667      739.88778      245.67464      615.2276       0.0025966258  -0.0015362779   0.0026        -0.0019725341  -0.0015374592   0.0025966258  -0.0019744821   8.012352       7.1875393      29.771543      13.00074       0.024644221    0.54013607     64.440798      62.592383      54.608873      2              220265.06      1.249239       9123.8561      12034.619     -3047.3597      914.73605     -918.45865     -17765.829     -26676.726     -45361.013      13           
     13200   297.04874     -26143.08       17764.701     -8378.3796     -262.64023     -466.20929      231.54815     -553.25954      0.0026365213  -0.0014398386   0.00264       -0.0043616438  -0.0014408762   0.0026365213  -0.0043711835   5.5660213      0.86250377    -3.8504278      3.7748161      10.404063     -12.437848      64.447022      62.594881      54.478148      2              219767.77      1.2520658      9218.9812      12017.611     -2926.6069      920.9351      -935.39148     -17761.557     -26677.053     -45374.001      13.2         
     13400   298.0431      -26504.767      17824.167     -8680.6003      483.14262      332.81515      558.67056      557.94214      0.0026764152  -0.00081406276  0.00268       -0.0065376828  -0.00081439429  0.0026764152  -0.006559147   -21.990391     -16.488245     -18.500003     -2.2940328     -2.1876086      13.111179      64.487409      62.597378      54.359082      2              219433.63      1.2539723      9267.2233      11911.506     -3188.3035      879.49532     -924.79947     -17772.208     -26677.681     -45374.688      13.4         
     13600   296.42705     -26362.091      17727.521     -8634.57        1007.5704      904.46531      954.67638      1163.5695      0.0027163075   0.00015816532  0.00272       -0.0070258537   0.00015815281  0.0027163075  -0.0070506512   7.4056523      12.292801     -3.658787       1.7750322      14.22668       6.0388594      64.550157      62.599875      54.332371      2              219547.97      1.2533193      9413.8077      11969.516     -3367.3337      884.00803     -834.3049      -17749.569     -26678.215     -45262.089      13.6         
     13800   302.8861      -26233.55       18113.798     -8119.7518     -900.42282     -1290.5824     -771.65309     -639.03298      0.0027561982   0.00078727117  0.00276       -0.0063463181   0.00078696144  0.0027561982  -0.0063665416  -4.854603      -9.2283393     -6.4299322      17.086806      0.21165859     12.898146      64.590759      62.602372      54.369553      2              219845.18      1.2516249      9230.9129      12114.451     -3070.1486      899.67217     -996.48532     -17735.183     -26676.769     -45408.437      13.8         
     14000   297.97392     -26192.317      17820.03      -8372.2873     -309.30244     -424.85339     -660.65281      157.59887      0.0027960873   0.00088848631  0.0028        -0.0070053547   0.00088809184  0.0027960873  -0.0070300074   12.244401      37.881182      17.077482      6.0607373      4.7491092     -4.5782598      64.597292      62.604869      54.333493      2              219730.35      1.252279       9252.8406      12064.574     -2976.897       891.53854     -964.98701     -17782.366     -26677.021     -45424.374      14           
     14200   297.91323     -26430.734      17816.4       -8614.3337     -218.43079     -361.67599      659.81264     -953.42902      0.0028359748   0.0015072083   0.00284       -0.0070160203   0.0015060736   0.0028359748  -0.0070407483  -27.010646      4.7478205     -16.011332      10.486908     -6.0619475     -9.6230052      64.637224      62.607367      54.332909      2              219872.59      1.2514689      9268.6866      12037.998     -3218.2174      891.87641     -985.56631     -17749.175     -26676.336     -45411.077      14.2         
     14400   298.03765     -26616.296      17823.841     -8792.4548     -317.61329     -584.39924      498.37425     -866.81487      0.0028758607   0.0015892929   0.00288       -0.0052669042   0.0015880313   0.0028758607  -0.0052808232   16.018514     -15.61131      -13.029081      10.071319      3.3294466      10.210852      64.642522      62.609864      54.428615      2              220286.73      1.2491161      9207.1719      11946.396     -3314.0637      893.05276     -945.02255     -17727.057     -26676.773     -45348.853      14.4         
     14600   300.0291      -26395.919      17942.938     -8452.9812      54.635671     -343.25705      385.54769      121.61637      0.0029157451   0.0011162999   0.00292       -0.0045830446   0.0011156773   0.0029157451  -0.0045935789   13.785822      13.538548      15.340706      0.31027481    -7.3952487      10.07632       64.611995      62.612361      54.466034      2              220342.86      1.2487979      9349.5927      11983.999     -3322.199       921.39545     -870.29519     -17780.349     -26678.063     -45328.707      14.6         
     14800   300.64765     -26380.962      17979.93      -8401.0322      165.24719      467.16238      1282.8668     -1254.2876      0.0029556278  -0.00037413652  0.00296       -0.0046494317  -0.00037420652  0.0029556278  -0.0046602739   9.5971081      28.14887       8.0305211      10.99114       8.2799212     -6.6744574      64.515802      62.614858      54.462401      2              220008.92      1.2506934      9195.1937      12006.76      -3200.326       904.34435     -855.04795     -17755.514     -26676.372     -45286.934      14.8         
     15000   299.37294     -26294.729      17903.697     -8391.0318     -278.76766     -1217.9508      730.00206     -348.35423      0.002995509   -0.00088114821  0.003         -0.0045456237  -0.00088153665  0.002995509   -0.0045559864  -5.3180334      7.9595026     -12.968293      6.6043324     -0.62082122     9.7819495      64.48308       62.617355      54.468081      2              219929.04      1.2511477      9036.0542      11922.602     -2741.8905      895.85058     -993.15027     -17736.275     -26677.92      -45407.345      15           
     15200   298.47378     -26321.275      17849.924     -8471.3515      218.18665      142.79508      220.56819      291.19668      0.0030353885  -0.0021433368   0.00304       -0.0037362219  -0.002145637    0.0030353885  -0.003743219    8.1668486     -21.724507     -3.7968272     -0.82359836    -0.34766654    -6.3681422      64.401618      62.619853      54.512369      2              219838.56      1.2516626      9165.8         12069.34      -3021.113       880.01463     -960.53377     -17777.766     -26677.018     -45415.317      15.2         
     15400   297.88159     -26483.727      17814.508     -8669.2193      846.33514      850.29771      981.89834      706.80936      0.0030752665  -0.0032903285   0.00308       -0.0038802436  -0.0032957535   0.0030752665  -0.0038877913   2.0965724     -5.3999784      21.88583      -2.5669322      2.4908468     -7.4843977      64.327591      62.62235       54.504489      2              219562.88      1.2532342      9215.6217      11949.54      -3152.5795      913.03621     -961.29852     -17771.327     -26676.72      -45409.346      15.4         
     15600   298.3777      -26518.297      17844.177     -8674.1195     -160.46814     -294.07759     -893.35901      706.03219      0.0031151429  -0.0041158563   0.00312       -0.0053876053  -0.0041243497   0.0031151429  -0.0054021708  -14.038646     -3.4802095     -6.4443542      10.1839       -6.1464774      2.7996141      64.274312      62.624847      54.422011      2              219057.79      1.2561238      9236.9916      12026.414     -3252.8457      878.35316     -981.0318      -17749.225     -26676.953     -45407.21       15.6         
     15800   300.04655     -26103.808      17943.982     -8159.8262     -693.86223     -832.50309     -232.12783     -1016.9558      0.0031550177  -0.0037256511   0.00316       -0.0051289198  -0.0037326086   0.0031550177  -0.0051421178  -10.633067      8.2556064     -12.170339      4.6106358     -8.0473725      2.640035       64.299496      62.627344      54.436165      2              219209.36      1.2552553      9195.6703      12125.188     -2901.7772      907.90307     -974.07414     -17779.085     -26677.632     -45430.792      15.8         
     16000   298.48449     -26258.046      17850.564     -8407.4827      282.02058      939.42454     -660.57464      567.21186      0.0031948909  -0.0026120528   0.0032        -0.0047878235  -0.0026154702   0.0031948909  -0.0047993219  -10.441608     -13.079187      16.609944      4.6908096     -6.8881        -2.6083785      64.371367      62.629841      54.454829      2              219538.37      1.2533741      9060.1658      12098.413     -2998.9334      903.97551     -904.81143     -17738.637     -26678.219     -45321.668      16           
     16200   299.5117      -26451.502      17911.995     -8539.5062      21.385812      521.43214     -830.91059      373.63588      0.0032347625  -0.00076256802  0.00324       -0.0042543769  -0.00076285893  0.0032347625  -0.0042634525   3.6902684     -4.2610058     -16.731914      14.077005      2.1216602     -11.530783      64.490733      62.632339      54.484017      2              220072.14      1.2503341      9215.3522      11938.538     -3192.2482      908.15534     -879.29117     -17764.546     -26677.463     -45321.299      16.2         
     16400   296.57137     -26489.796      17736.152     -8753.6445      479.41233      1359.0447      673.6148      -594.42255      0.0032746325  -0.00045111416  0.00328       -0.0033974049  -0.00045121594  0.0032746325  -0.0034031892   17.004006      6.4411489      0.76915529     15.541097      5.611296       6.4494544      64.510834      62.634836      54.530908      2              220338.98      1.2488199      9143.1528      12041.197     -3200.1786      899.85689     -947.02644     -17749.873     -26676.925     -45373.824      16.4         
     16600   297.86415     -26236.967      17813.466     -8423.5017      437.41682      408.60929      783.19622      120.44496      0.003314501   -0.0013844163   0.00332       -0.0035860146  -0.0013853755   0.003314501   -0.0035924598   1.7815207      3.3388788      0.22352499    -1.1883896     -4.5320631     -7.4306815      64.450599      62.637333      54.520588      2              220100.36      1.2501738      9300.9998      12042.356     -3185.7836      913.68449     -871.08979     -17759.932     -26677.202     -45308.224      16.6         
     16800   301.76068     -26418.554      18046.493     -8372.0611     -130.83822     -219.16854     -298.85021      125.50408      0.0033543678  -0.0010272081   0.00336       -0.0033235026  -0.001027736    0.0033543678  -0.0033290377  -21.046599      14.076326      12.557046      11.236614      8.2113284      9.596679       64.473653      62.63983       54.534952      2              220245.88      1.2493478      9095.0926      12046.703     -3096.7068      908.35318     -896.59824     -17798.754     -26676.643     -45371.996      16.8         
     17000   297.65427     -26337.921      17800.914     -8537.0071      235.13483      204.97956      567.17978     -66.754853      0.0033942331   0.00090005293  0.0034        -0.0039340854   0.00089964812  0.0033942331  -0.0039418442  -0.18105881     2.0500524     -17.87489       3.0623572      4.8074425     -8.860217       64.598038      62.642327      54.501543      2              220544.39      1.2476568      9185.5611      12127.914     -3205.6165      868.37648     -904.56526     -17732.123     -26677.468     -45314.156      17           
     17200   296.65493     -26106.984      17741.149     -8365.8353     -228.0964      -81.875371     -531.13952     -71.27431       0.0034340967   0.0021591595   0.00344       -0.0044724276   0.0021568319   0.0034340967  -0.0044824588   7.6010442      0.5114137      26.319044     -6.222354       22.427141      12.894553      64.679301      62.644825      54.472086      2              220711.28      1.2467134      9227.2668      12026.651     -3026.1552      897.76828     -798.63355     -17756.353     -26677.528     -45232.515      17.2         
     17400   296.99511     -26356.336      17761.493     -8594.8427     -196.71663      90.969715      2.4974731     -683.61709      0.0034739588   0.0015553472   0.00348       -0.0063603504   0.0015541389   0.0034739588  -0.0063806636   19.728884     -10.683074      9.1606144      13.221171      2.2237771     -24.382843      64.640331      62.647322      54.368785      2              220168.77      1.2497854      9145.6728      11886.126     -2975.0035      900.95976     -863.11892     -17773.266     -26677.706     -45314.091      17.4         
     17600   296.38933     -26267.142      17725.265     -8541.8769      298.40827     -759.60271     -123.34546      1778.173       0.0035138193   0.00069740797  0.00352       -0.0081861042   0.00069716489  0.0035138193  -0.0082197943  -5.8053107      0.77790404    -20.677973      8.454295      -1.4985105      4.6377462      64.58496       62.649819      54.268886      2              219584.72      1.2531095      9236.1399      12092.007     -3098.1209      893.64805     -942.88496     -17770.081     -26677.85      -45390.816      17.6         
     17800   302.3317      -26459.367      18080.643     -8378.7247      728.74624      701.12496      589.17438      895.93937      0.0035536782   0.00065996359  0.00356       -0.0077073802   0.00065974591  0.0035536782  -0.0077372356  -13.851736     -15.015518     -17.907012     -0.757734       23.59791      -2.4985683      64.582543      62.652316      54.29508       2              219691.25      1.2525019      9311.7459      11926.381     -3301.5857      886.15082     -856.77333     -17748.059     -26677.227     -45282.059      17.8         
     18000   297.96704     -26276.239      17819.618     -8456.6208     -407.75737     -993.21356     -51.745511     -178.31304      0.0035935355   0.0019378532   0.0036        -0.0056504518   0.001935978    0.0035935355  -0.005666476   -14.359878     -8.4943173      3.2905458     -0.48840287     11.16818       6.3501181      64.665018      62.654813      54.407629      2              220436.57      1.248267       9268.9173      11901.292     -2938.13        893.12401     -976.94752     -17747.203     -26677.292     -45401.443      18           
     18200   299.38672     -26356.27       17904.521     -8451.7484      307.55796     -784.17886      1069.2785      637.57426      0.0036333912   0.0014799704   0.00364       -0.0044840243   0.0014788763   0.0036333912  -0.0044941077   30.302464      4.4518998      13.807368      6.172425       9.3859181     -5.6381388      64.635466      62.657311      54.471452      2              220603.09      1.2473248      9294.2704      12109.784     -3301.8545      889.31095     -915.12432     -17753.704     -26678.953     -45347.78       18.2         
     18400   297.18137     -26164.13       17772.632     -8391.4974      152.98496     -707.43329      729.27252      437.11564      0.0036732454  -1.7593958e-05  0.00368       -0.0047377864  -1.7594112e-05  0.0036732454  -0.0047490453   4.7552369      4.1483718      3.6066796     -0.69954699     7.8810689      11.865989      64.538814      62.659808      54.457567      2              220225.84      1.2494615      9293.0121      12008.732     -2964.9773      887.82265     -956.74357     -17754.31      -26677.666     -45388.72       18.4         
     18600   298.05191     -26425.069      17824.694     -8600.3748     -116.76923     -288.11965      18.928214     -81.116248      0.0037130979  -0.00011389604  0.00372       -0.0049258223  -0.00011390253  0.0037130979  -0.0049379941  -16.206554     -16.691249     -4.242478       5.6692147     -7.6170765      1.271572       64.532598      62.662305      54.447278      2              220171.8       1.2497682      9165.7967      11984.581     -3036.1394      900.71694     -990.58186     -17772.265     -26677.177     -45440.024      18.6         
     18800   299.80087     -26504.204      17929.289     -8574.9145      146.20595     -132.42094      195.79303      375.24577      0.0037529489  -0.00028175443  0.00376       -0.005574238   -0.00028179413  0.0037529489  -0.005589832   -1.9932791      22.448606     -0.5618009      3.3336527      7.7422646     -12.074339      64.521765      62.664802      54.411799      2              220000.16      1.2507432      9347.941       11986.126     -3351.2113      895.98902     -949.75832     -17756.838     -26676.452     -45383.048      18.8         
     19000   299.60806     -26395.456      17917.758     -8477.6984      891.14279     -337.47564      2032.3579      978.54616      0.0037927982  -0.0005918903   0.0038        -0.007419465   -0.00059206553  0.0037927982  -0.0074471262   14.620364      12.439027      4.3088765     -4.5131894     -0.53964326    -13.812568      64.501748      62.667299      54.310834      2              219532.56      1.2534073      9324.2435      11873.917     -3190.9689      924.52432     -853.15553     -17797.006     -26677.011     -45327.173      19           
     19200   296.52084     -26405.255      17733.13      -8672.1253      319.20855      499.85403     -64.248166      522.01979      0.003832646   -0.0009741734   0.00384       -0.0061266208  -0.00097464822  0.003832646   -0.0061454655  -4.8119198     -19.138566     -35.441495      9.7484862      12.077636     -10.256384      64.477076      62.669797      54.381574      2              219743.17      1.2522059      9241.9655      12036.846     -3256.868       925.53516     -913.58338     -17762.582     -26676.568     -45352.734      19.2         
     19400   298.9723      -26359.725      17879.737     -8479.9884      325.04204     -554.28993      451.13946      1078.2766      0.0038724922  -0.0028534318   0.00388       -0.0044063287  -0.0028575106   0.0038724922  -0.0044160652   12.751533      1.429916       5.8188058      12.698198      13.308838      4.1570805      64.355789      62.672294      54.475703      2              219718.21      1.2523482      9153.4954      11935.334     -2984.4967      900.14067     -920.55123     -17766.277     -26677.37      -45364.199      19.4         
     19600   296.48116     -26305.481      17730.757     -8574.7242     -445.02521     -690.11098     -135.99354     -508.9711       0.0039123368  -0.0037347903   0.00392       -0.0032508421  -0.0037417821   0.0039123368  -0.0032561376  -11.847396      0.50883977     2.3807371      1.3360461      24.470713     -1.8906221      64.298906      62.674791      54.538928      2              219787.54      1.2519531      9107.9532      12138.792     -3020.5644      914.03821     -1021.0796     -17747.059     -26677.562     -45445.7        19.6         
     19800   298.50045     -26222.736      17851.518     -8371.2178     -299.57114     -242.80697     -588.10603     -67.800425      0.0039521798  -0.0040063928   0.00396       -0.0023567942  -0.0040144399   0.0039521798  -0.0023595758   6.5219065     -21.430472      10.52315       1.5748948      1.2662507      15.424463      64.281377      62.677288      54.587847      2              219933.47      1.2511224      9380.0095      11945.702     -3105.275       901.02747     -907.14388     -17760.413     -26676.644     -45344.201      19.8         
     20000   298.57313     -26448.587      17855.865     -8592.7217      620.2711       61.110903      858.76224      940.94016      0.0039920213  -0.0038675048   0.004         -0.0024311594  -0.0038750029   0.0039920213  -0.0024341194  -17.898877     -11.581018     -0.38009267     11.326105     -1.5048365     -16.761337      64.29034       62.679785      54.583778      2              219956.51      1.2509914      9314.4613      12059.302     -3336.5281      879.59963     -911.86674     -17776.184     -26677.37      -45365.421      20           
     20200   298.93887     -26472.823      17877.738     -8595.085       232.3753       411.40912     -164.25317      449.96994      0.0040318611  -0.0034285652   0.00404       -0.0026756141  -0.0034344562   0.0040318611  -0.0026792      9.9543318      22.644659      18.823823      16.84505      -0.77678023     4.11604        64.31867       62.682283      54.570402      2              220008.27      1.2506971      9347.448       11929.227     -3204.3087      882.21115     -963.19985     -17786.857     -26677.343     -45427.4        20.2         
     20400   300.16204     -26270.705      17950.888     -8319.8166      236.90185     -942.64725      807.49178      845.86102      0.0040716994  -0.0035434268   0.00408       -0.004307649   -0.0035497196   0.0040716994  -0.0043169537  -2.6785538     -5.1100709     -6.7089323      6.9406436     -4.2282631      7.4597852      64.311256      62.68478       54.481102      2              219631.68      1.2528416      9287.1666      11914.789     -3028.3221      922.54399     -896.63031     -17793.622     -26676.63      -45366.883      20.4         
     20600   298.91999     -26484.915      17876.609     -8608.3061      599.75393     -135.5844       1012.0052      922.84103      0.004111536   -0.0032425784   0.00412       -0.0040640699  -0.0032478469   0.004111536   -0.0040723506  -3.5994423     -0.030779941   -17.190637      1.7719461      5.0468666      0.60821819     64.330673      62.687277      54.49443       2              219760.49      1.2521072      9222.8602      11940.859     -3125.4344      899.80583     -969.49883     -17775.914     -26677.593     -45423.006      20.6         
     20800   296.69986     -26354.004      17743.836     -8610.1676      837.26044      1612.5602      581.84716      317.37395      0.0041513711  -0.0024739833   0.00416       -0.0034301128  -0.0024770486   0.0041513711  -0.0034360091  -0.95476044    -0.95688938     2.446291       12.457558      2.3536509     -1.2032224      64.380278      62.689774      54.529118      2              220078.71      1.2502968      9403.7027      11898.039     -3226.3882      903.44045     -847.61803     -17807.739     -26677.441     -45332.798      20.8         
     21000   302.94179     -26294.019      18117.129     -8176.8898     -132.25306     -594.03146     -83.024394      280.29666      0.0041912046  -0.0010947338   0.0042        -0.0036513941  -0.0010953335   0.0041912046  -0.0036580767  -5.2169362      4.7100323      12.283108      10.460097      0.34183433    -7.1460435      64.469295      62.692272      54.517011      2              220342.85      1.248798       9245.7933      11915.312     -3069.0831      894.95539     -855.36255     -17749.449     -26676.185     -45280.996      21           
     21200   299.4945      -26328.346      17910.967     -8417.3792     -723.6361      -870.77857     -500.8049      -799.32484      0.0042310365   0.00025658289  0.00424       -0.0041561942   0.00025654998  0.0042310365  -0.0041648552   8.5635836     -14.114174     -3.0923209      6.1753062      12.983843     -8.6641813      64.556509      62.694769      54.48939       2              220537.92      1.2476934      9109.8631      11954.316     -2970.2769      894.79802     -891.71885     -17748.256     -26677.072     -45317.046      21.2         
     21400   298.48629     -26469.946      17850.672     -8619.2741      408.76012      235.31406      360.26996      630.69634      0.0042708669   0.0014560632   0.00428       -0.0041293066   0.0014550042   0.0042708669  -0.0041378557   18.965995      14.617525      12.06629       3.5256371      9.6675927      8.2391279      64.633923      62.697266      54.490861      2              220817.14      1.2461157      9227.0369      12052.705     -3362.6017      896.44949     -849.5534      -17758.439     -26675.543     -45283.535      21.4         
     21600   299.46747     -26531.158      17909.35      -8621.8083      72.77664       508.88067     -444.60933      154.05858      0.0043106956   0.0007150469   0.00432       -0.0057156684   0.00071479138  0.0043106956  -0.0057320653  -2.4812048      1.5061889     -3.1577187     -16.197604     -15.460848     -1.9446893      64.586098      62.699763      54.40406       2              220311.04      1.2489783      9259.3898      12001.641     -3302.9791      851.2838      -891.57907     -17772.004     -26676.911     -45340.494      21.6         
     21800   297.95665     -26017.453      17818.997     -8198.4554     -197.80397      737.21762     -1182.3018     -148.32773      0.0043505227   0.00018906374  0.00436       -0.0066410265   0.00018904586  0.0043505227  -0.0066631762  -7.6785262      4.7781316     -16.242959      13.564584     -12.964724     -8.6559518      64.552151      62.70226       54.353428      2              219999.07      1.2507494      9315.7538      12083.559     -3044.9558      918.48615     -867.23718     -17746.494     -26676.564     -45290.295      21.8         
     22000   296.66957     -26292.592      17742.024     -8550.5677      544.68162      622.96003      83.745828      927.33901      0.0043903483   0.0015739281   0.0044        -0.0067653815   0.0015726907   0.0043903483  -0.0067883705  -7.4954909      1.6958477     -3.6116498      1.4353855      2.0534642     -10.620761      64.64153       62.704758      54.346623      2              220284.88      1.2491266      9367.6814      11995.969     -3167.6175      896.31887     -942.11484     -17764.829     -26677.999     -45384.943      22           
     22200   298.41591     -26239.96       17846.463     -8393.4973     -827.13924     -1591.3432      954.29899     -1844.3735      0.0044301723   0.0032701705   0.00444       -0.0074980766   0.0032648352   0.0044301723  -0.0075263285   21.400311      21.570474      14.092492     -10.048098      5.7801552     -15.853731      64.751006      62.707255      54.306533      2              220503.95      1.2478856      9267.0431      12125.661     -3096.4196      875.4051      -964.81437     -17769.915     -26676.92      -45411.65       22.2         
     22400   300.32592     -26305.341      17960.689     -8344.652      -5.6040873      446.01891     -1240.4941      777.66297      0.0044699947   0.0028513546   0.00448       -0.008824697    0.0028472972   0.0044699947  -0.0088638652   5.1605659      5.4139566     -10.768873      8.9958162     -12.598663      6.0966159      64.723975      62.709752      54.233944      2              220126.06      1.2500279      9443.9732      11980.663     -3300.9126      879.48627     -857.33962     -17773.623     -26677.589     -45308.552      22.4         
     22600   298.89061     -26607.844      17874.852     -8732.9929      832.05507      834.97289      297.55237      1363.6399      0.0045098155   0.0022236348   0.00452       -0.008101871    0.0022211662   0.0045098155  -0.0081348695  -9.7249194     -7.4256572     -13.179194      8.4056215      5.9486733     -21.199016      64.683462      62.712249      54.273495      2              220157.47      1.2498495      9275.494       11990.615     -3433.4424      863.53111     -870.08596     -17756.705     -26677.251     -45304.042      22.6         
     22800   300.56643     -26334.662      17975.072     -8359.5899     -726.28563     -1440.8055     -510.56867     -227.48276      0.0045496347   0.0024046148   0.00456       -0.0065309355   0.0024017284   0.0045496347  -0.0065523553   9.850001       10.164053      1.7923075     -1.8543432     -0.3254758     -6.5474812      64.695143      62.714746      54.359451      2              220554.75      1.2475982      9174.7672      11886.82      -2875.5199      895.96949     -967.79559     -17772.571     -26676.333     -45416.699      22.8         
     23000   300.17738     -26051.718      17951.806     -8099.9117     -167.07422      134.58699     -461.6638      -174.14586      0.0045894523   0.0016804146   0.0046        -0.0055848583   0.0016790043   0.0045894523  -0.0056005119  -1.299691       13.710634      2.2764186      2.2882839     -11.705236      11.531509      64.648403      62.717244      54.411218      2              220614.07      1.2472627      9370.4464      12004.374     -3021.7979      912.97447     -876.35123     -17763.06      -26678.304     -45317.715      23           
     23200   297.7875      -26283.485      17808.881     -8474.6039      105.18919      161.03606     -228.126        382.65749      0.0046292684   0.00049937399  0.00464       -0.0057637727   0.00049924934  0.0046292684  -0.0057804473  -2.5062023      11.235269      15.186645      4.1140306     -1.0434947      0.51680595     64.572179      62.719741      54.401428      2              220323.08      1.24891        9341.0088      12024.11      -3196.6291      914.43245     -943.58885     -17746.034     -26676.784     -45366.407      23.2         
     23400   297.61042     -26433.888      17798.291     -8635.5966      163.36493     -78.774307     -152.31894      721.18804      0.0046690828  -0.00054860879  0.00468       -0.0070347809  -0.00054875933  0.0046690828  -0.0070596416  -1.0828562     -9.726591      -10.100067      21.095858      17.308721      9.7713734      64.504542      62.722238      54.331883      2              219819.69      1.25177        9309.7346      11852.234     -3193.8101      909.25766     -875.68442     -17759.397     -26676.222     -45311.304      23.4         
     23600   301.51275     -26396.426      18031.666     -8364.76        557.54845      1133.6015      400.1236       138.92023      0.0047088957  -0.0012113658   0.00472       -0.007356595   -0.0012121001   0.0047088957  -0.0073837882  -14.198984     -9.6981099     -6.3464051     -2.1949433     -0.91446445     10.750104      64.461768      62.724735      54.314274      2              219611.47      1.2529569      9272.7403      12004.738     -3186.0053      908.77869     -969.70105     -17750.89      -26676.087     -45396.678      23.6         
     23800   296.03081     -26121.634      17703.824     -8417.8099      300.56023      974.39332     -291.67677      218.96415      0.004748707   -0.0014069184   0.00476       -0.0074313731  -0.0014079091   0.004748707   -0.0074591233  -4.380928      -0.046772159    4.6661949      11.365345      2.3709011     -3.7072042      64.449147      62.727232      54.310182      2              219560.68      1.2532468      9313.0035      11967.22      -2974.5152      888.48762     -872.62104     -17767.373     -26675.836     -45315.83       23.8         
     24000   297.72402     -26391.432      17805.085     -8586.3472      255.28289      741.72386     -160.89834      185.02315      0.0047885167  -0.00062344151  0.0048        -0.0075441735  -0.00062363594  0.0047885167  -0.0075727747  -5.3002043      2.9633712      1.7094899     -4.0820578      7.9979129      1.9505625      64.499712      62.72973       54.30401       2              219716.71      1.2523567      9277.7754      12030.411     -3234.2619      894.48565     -928.60855     -17753.661     -26677.573     -45359.842      24           
     24200   295.68513     -26459.514      17683.151     -8776.3631     -204.19171     -384.64011     -438.35928      210.42428      0.0048283249   0.00014979661  0.00484       -0.0068674074   0.00014978539  0.0048283249  -0.0068910966   12.532119      14.521538     -14.35617       2.5088937     -6.1923394      5.8452197      64.549617      62.732227      54.341041      2              220045.42      1.250486       9196.5348      11993.59      -3203.017       891.9994      -903.38669     -17758.615     -26676.621     -45338.622      24.2         
     24400   300.15822     -26399.317      17950.66      -8448.6576      125.08901      187.62037     -514.85483      702.50149      0.0048681314   8.8128874e-05  0.00488       -0.0061468997   8.8124991e-05  0.0048681314  -0.0061658697   7.3037703      7.0203286      12.303629     -10.954166      6.3657944      5.1431877      64.545637      62.734724      54.380465      2              220200.24      1.2496067      9209.4731      11945.409     -3118.3242      882.65498     -901.30955     -17741.524     -26675.697     -45318.53       24.4         
     24600   297.87596     -26051.809      17814.171     -8237.6374     -84.96805      -47.791026     -673.51352      466.4004       0.0049079364  -0.00041342759  0.00492       -0.0065113979  -0.00041351308  0.0049079364  -0.0065326895   2.9791959      10.875095      11.599356      7.55804       -1.9829407      9.0789778      64.513266      62.737221      54.36052       2              220017.85      1.2506426      9246.5804      12025.991     -2858.5832      896.37637     -908.20082     -17776.997     -26676.976     -45362.173      24.6         
     24800   297.75157     -26411.23       17806.733     -8604.4977      336.07107     -3.0041312      1256.329      -245.11163      0.0049477397  -0.00018941704  0.00496       -0.0076255196  -0.00018943498  0.0049477397  -0.0076547425  -13.879012      8.9779015     -12.136362     -10.292425      18.346948      6.6144055      64.527724      62.739718      54.299559      2              219829.12      1.2517164      9189.6579      12027.061     -3189.5563      900.67754     -940.89712     -17720.789     -26677.384     -45339.071      24.8         
     25000   299.91452     -26424.666      17936.085     -8488.5801      28.841686      460.51677     -609.67605      235.68434      0.0049875415   0.0002796457   0.005         -0.0083711913   0.00027960661  0.0049875415  -0.0084064265   6.7806469     -12.308435      1.2464403      2.7391195      2.1875954      17.640284      64.557997      62.742216      54.258758      2              219775.74      1.2520204      9132.1728      11927.897     -3019.4725      890.31072     -905.45661     -17772.816     -26677.301     -45355.573      25           
     25200   296.9591      -26271.296      17759.34      -8511.9564     -293.10704     -961.44219      660.42899     -578.30792      0.0050273417   0.00034049753  0.00504       -0.0085427394   0.00034043957  0.0050273417  -0.0085794378   1.2045781      1.3331028     -8.1804819      12.163105      7.5676007     -9.7631088      64.561925      62.744713      54.249372      2              219759.83      1.252111       9185.567       12105.328     -3142.8183      908.25285     -879.28178     -17770.485     -26677.859     -45327.626      25.2         
     25400   294.63217     -26429.933      17620.18      -8809.7538      252.92264     -367.66507      127.64063      998.79236      0.0050671403  -0.00067620401  0.00508       -0.0076459193  -0.00067643274  0.0050671403  -0.0076752992  -6.97674       -21.872099     -18.461486      18.217977     -2.7028199     -12.199515      64.496307      62.74721       54.298443      2              219743.81      1.2522023      9270.1511      11880.183     -3176.2641      906.69499     -875.06358     -17758.573     -26677.061     -45310.698      25.4         
     25600   301.14559     -26346.664      18009.709     -8336.9557      230.34357     -370.34774      336.69936      724.6791       0.0051069374  -0.0017214319   0.00512       -0.0049632314  -0.0017229152   0.0051069374  -0.0049755891   24.087072      17.465696     -2.6393695      1.8862892     -2.0369616      7.6883277      64.428848      62.749707      54.445231      2              220116.15      1.2500841      9219.2943      12026.882     -3129.0957      912.27986     -940.59269     -17757.63      -26677.802     -45376.025      25.6         
     25800   297.77662     -26396.6        17808.231     -8588.3695      956.69203      966.13737      1168.1692      735.76955      0.0051467328  -0.0042872547   0.00516       -0.0032426831  -0.0042964714   0.0051467328  -0.003247952   -13.937336      7.4947482      10.158051     -4.3110886     -1.4553156      1.5575988      64.26325       62.752204      54.539374      2              219938.78      1.2510922      9471.9447      11966.707     -3366.523       889.78308     -929.72836     -17751.308     -26677.475     -45358.512      25.8         
     26000   296.79361     -26124.729      17749.443     -8375.286      -356.2311      -800.68502      26.280759     -294.28903      0.0051865267  -0.00504658     0.0052        -0.0020095701  -0.005059357    0.0051865267  -0.002011592   -0.49185235     18.43075       19.484372     -7.3375293     -4.121074      -6.1414172      64.214243      62.754702      54.606846      2              220051.7       1.2504502      9220.6756      11943.306     -2818.8849      934.8772      -971.0605      -17756.233     -26677.409     -45404.703      26           
     26200   298.49385     -26485.806      17851.124     -8634.682      -753.51369      67.078757     -1269.9667     -1057.6531      0.005226319   -0.0062284761   0.00524       -0.0025164399  -0.006247954    0.005226319   -0.0025196115  -8.4770376      2.1536481      11.955064      1.9365837      3.8063473      2.1862023      64.137964      62.757199      54.579112      2              219687.42      1.2525237      9302.2884      11869.987     -3163.277       880.23258     -952.84406     -17745.815     -26676.379     -45375.038      26.2         
     26400   296.15637     -26568.13       17711.333     -8856.7966      585.97805      802.34401      739.32062      216.26953      0.0052661097  -0.0059599491   0.00528       -0.0039754882  -0.0059777805   0.0052661097  -0.0039834114  -17.040176     -7.4545088     -16.641232      8.4079785      17.880947      6.2602868      64.155294      62.759696      54.499277      2              219434.08      1.2539698      9345.9791      11996.637     -3481.3719      879.07366     -840.82163     -17791.362     -26676.264     -45308.447      26.4         
     26600   299.34408     -26264.016      17901.971     -8362.0457     -322.81852     -1028.1607      182.0678      -122.36265      0.0053058988  -0.0054197253   0.00532       -0.0043747     -0.0054344653   0.0053058988  -0.004384297    11.467648      9.3739621      1.2324201      11.084162      3.9136746      3.1481412      64.19016       62.762193      54.477434      2              219474.07      1.2537413      9383.5487      11941.841     -3126.7432      900.61884     -909.69459     -17776.16      -26677.428     -45363.282      26.6         
     26800   298.14163     -26356.67       17830.06      -8526.6107      45.273623      395.57478     -346.31119      86.557276      0.0053456863  -0.0043875546   0.00536       -0.0035882176  -0.0043972082   0.0053456863  -0.0035946707  -3.7446173      7.4430512     -3.2251505      7.6996922     -11.378562     -6.3481312      64.256776      62.76469       54.520467      2              219884.14      1.2514032      9394.889       11845.209     -3082.9828      893.67177     -933.1908      -17797.197     -26677.069     -45407.457      26.8         
     27000   297.48966     -26378.497      17791.07      -8587.4275     -278.66753     -13.562411     -295.8729      -526.56727      0.0053854723  -0.0028415107   0.0054        -0.0039271018  -0.0028455555   0.0053854723  -0.0039348331  -9.434368       6.8833052      13.189322      2.3331923     -1.8189666     -4.4939907      64.356558      62.767188      54.501925      2              220159.44      1.2498383      9281.7115      11928.667     -3113.7157      911.27249     -972.2781      -17737.378     -26676.776     -45386.432      27           
     27200   298.41202     -26322.302      17846.23      -8476.0722      75.82365       426.50081     -1311.7819      1112.7521      0.0054252566  -0.0017825575   0.00544       -0.0067400533  -0.0017841481   0.0054252566  -0.00676287     7.6900396      18.048679      20.237903     -2.436797       1.508059       4.3919654      64.424903      62.769685      54.348009      2              219779.59      1.2519984      9326.5215      12026.512     -3235.8969      892.57861     -905.5423      -17749.503     -26676.972     -45332.018      27.2         
     27400   298.21235     -26414.621      17834.289     -8580.3315      291.51833      394.7096      -282.13497      761.98035      0.0054650394  -0.0002865434   0.00548       -0.0091761641  -0.00028658446  0.0054650394  -0.0092185244  -7.2418583     -2.0403724     -8.8498106      4.6042832     -1.1665963      3.9673862      64.521456      62.772182      54.214713      2              219577.86      1.2531487      9337.6567      12005.23      -3278.7336      890.80564     -951.36125     -17741.908     -26676.31      -45369.579      27.4         
     27600   297.70548     -26262.869      17803.976     -8458.8926      91.269984     -120.90669     -296.03642      690.75306      0.0055048206   0.0011304984   0.00552       -0.010457089    0.0011298599   0.0055048206  -0.010512148    5.579397      -1.311952      -11.349339      2.9009852     -9.174278       14.980819      64.612911      62.774679      54.144625      2              219613.56      1.2529449      9270.921       12033.252     -3095.8073      901.19359     -935.56315     -17761.002     -26675.863     -45372.428      27.6         
[...]
    744000   299.14447     -25875.089      17890.034     -7985.0556     -680.58891      120.07117     -2062.4104     -99.427484      0.13871792    -0.049824004    0.1488        -0.061993743   -0.051108052    0.13871792    -0.06399866    -13.16899       185.63963      4.7800825     -11.484253      11.811233     -0.19498083     61.32431       71.719659      51.324704      2              225734.19      1.2189722      9173.8405      11911.908     -2824.332       911.22737     -632.5207      -17738.679     -26676.533     -45047.733      744          
    744200   301.86344     -25872.368      18052.639     -7819.7295     -72.729423      1362.0961     -552.6132      -1027.6712      0.13875274    -0.050186141    0.14884       -0.062197239   -0.051489251    0.13875274    -0.064215628   -2.8888709      155.24472     -9.1819092      0.70950003    -4.8622765     -1.3353527      61.300938      71.722156      51.313569      2              225607.06      1.2196591      9419.6231      11894.124     -3105.6974      897.86892     -587.6337      -17713.98      -26676.674     -44978.287      744.2        
    744400   298.30097     -25939.315      17839.589     -8099.7261     -542.49973      674.29137     -2286.8558     -14.934749      0.13878755    -0.049281527    0.14888       -0.062391258   -0.050537293    0.13878755    -0.064422536   -9.8578192      158.896       -2.9383675     -0.41364101     18.390465     -0.43724227     61.359322      71.724653      51.302953      2              225783.07      1.2187083      9366.2346      11801.664     -2971.2308      901.03006     -649.9133      -17710.082     -26677.017     -45037.013      744.4        
    744600   301.65443     -25806.011      18040.139     -7765.8724     -1037.6631      50.86152      -2522.3886     -641.46206      0.13882237    -0.048621175    0.14892       -0.062276878   -0.049842951    0.13882237    -0.064300553    8.0065166      165.73594      4.8797086      1.4171549     -0.53070977     0.54956093     61.401941      71.727151      51.309212      2              225975.32      1.2176715      9218.125       11927.894     -2779.2227      880.61927     -632.76064     -17744.536     -26676.131     -45053.427      744.6        
    744800   295.99606     -25503.579      17701.746     -7801.8332     -824.28756     -87.344994     -1710.1761     -675.34156      0.13885719    -0.048461544    0.14896       -0.061738843   -0.049675177    0.13885719    -0.063726949    8.5612259      161.79743     -2.2452903     -6.1200891      7.1573679      1.947818       61.412243      71.729648      51.338651      2              226150.79      1.2167267      9263.4839      12093.138     -2807.3704      897.42939     -551.85321     -17721.908     -26676.499     -44950.26       744.8        
    745000   295.78631     -25739.818      17689.202     -8050.6157     -592.2396      -253.04575     -2988.5309      1464.8579      0.138892      -0.04850411     0.149         -0.061431157   -0.049719912    0.138892      -0.063399072    1.2722376      174.82222     -3.5469174      9.752814       10.661262     -1.0556875      61.409496      71.732145      51.355487      2              226222.71      1.2163399      9406.6135      11946.348     -2976.6208      903.17741     -613.59828     -17728.35      -26677.388     -45019.336      745          
    745200   301.19327     -25883.652      18012.56      -7871.0926      642.6318       547.98567      164.74838      1215.1614      0.13892681    -0.049841703    0.14904       -0.060856549   -0.05112668     0.13892681    -0.062787041    11.158559      173.42659     -10.818172     -6.7287255      8.2939313     -5.073277       61.323168      71.734642      51.386927      2              226050.86      1.2172646      9386.8651      11971.279     -3181.8448      899.25754     -537.62076     -17745.275     -26676.313     -44959.209      745.2        
    745400   297.93629     -25800.989      17817.779     -7983.2097     -324.28278      560.23503     -1643.3733      110.28997      0.13896162    -0.051442156    0.14908       -0.059111648   -0.052812507    0.13896162    -0.060930794   -7.0420863      156.24012      8.7448954     -2.7420722      1.0698548      4.2346405      61.219875      71.737139      51.482403      2              226097.26      1.2170148      9291.9011      11999.447     -3015.2837      898.9862      -605.96637     -17693.699     -26676.374     -44976.04       745.4        
    745600   298.81752     -25741.227      17870.481     -7870.7462     -341.41176      799.87585     -2633.3429      809.23178      0.13899643    -0.052235588    0.14912       -0.058305955   -0.053649318    0.13899643    -0.060074851   -4.4029848      168.97654      4.6122528      4.6873606      7.0458892      10.820173      61.168667      71.739637      51.526488      2              226109.46      1.2169491      9133.0984      12072.439     -2705.4779      901.45227     -717.99771     -17748.57      -26676.171     -45142.739      745.6        
    745800   298.44339     -25551.594      17848.106     -7703.4875     -441.75445      750.10465     -1616.6485     -458.71947      0.13903124    -0.052464312    0.14916       -0.057248171   -0.053890678    0.13903124    -0.058952202   -16.760687      164.82713      10.943369     -16.24467       5.7136302     -6.7117906      61.153905      71.742134      51.584366      2              226316.69      1.2158348      9446.0169      12097.238     -2884.0897      914.1195      -720.22274     -17727.667     -26676.989     -45124.879      745.8        
    746000   297.23407     -25798.881      17775.784     -8023.0965      96.605169      1527.1099     -2022.0353      784.74088      0.13906605    -0.051521271    0.1492        -0.057867624   -0.052895915    0.13906605    -0.059609488   -1.7364484      159.93155      3.0879496     -8.0172116      6.5801029     -0.33359282     61.214769      71.744631      51.550472      2              226400.96      1.2153822      9486.1337      12150.212     -3328.6463      903.07173     -620.80069     -17712.953     -26675.897     -45009.651      746          
    746200   297.36076     -25871.383      17783.361     -8088.022      -630.99327      128.21705     -1386.3705     -634.82637      0.13910085    -0.050540942    0.14924       -0.058679667   -0.05186287     0.13910085    -0.06047178     8.8329317      178.4471       11.958114     -15.623399     -7.4544265      2.6041242      61.278039      71.747128      51.506039      2              226447.5       1.2151324      9296.1656      12028.373     -3099.4701      923.99476     -662.09917     -17682.207     -26676.14      -45020.446      746.2        
    746400   294.39744     -25573.278      17606.142     -7967.1358     -775.05481      32.910597     -2330.5586     -27.51646       0.13913566    -0.049376292    0.14928       -0.060368513   -0.050636975    0.13913566    -0.062267515    4.4255864      183.15564     -8.727646      -4.5003172     -1.3984243     -2.6482409      61.353206      71.749625      51.413631      2              226326.38      1.2157827      9316.0753      12091.562     -2839.8139      897.50023     -619.92752     -17741.864     -26676.811     -45038.602      746.4        
    746600   299.81969     -25885.223      17930.414     -7954.8089     -138.20227      446.79945     -501.13605     -360.27023      0.13917046    -0.048134381    0.14932       -0.062019089   -0.04933141     0.13917046    -0.06402568    -1.9002781      170.20186     -7.4717897     -4.0305238      12.18041      -0.3560362      61.433359      71.752123      51.323317      2              226231.84      1.2162908      9460.3856      11944.012     -3181.6495      901.97226     -610.7312      -17721.557     -26677.655     -45009.944      746.6        
    746800   297.7443      -25883.237      17806.298     -8076.9389     -378.46518     -747.03953     -803.77961      415.42359      0.13920527    -0.046839166    0.14936       -0.063329387   -0.047971624    0.13920527    -0.065423592   -2.3265267      128.13218     -7.7655629      6.2140888      11.502068     -10.43611       61.516952      71.75462       51.251622      2              226231.09      1.2162948      9382.8975      11920.344     -3118.5264      901.3648      -540.4727      -17751.097     -26677.747     -44969.317      746.8        
    747000   298.47471     -25998.37       17849.979     -8148.3911     -564.11785     -404.52831     -2002.9053      715.08009      0.13924007    -0.047222947    0.1494        -0.063318709   -0.048374345    0.13924007    -0.065412193    17.466916      155.4128      -13.784761     -8.8294423      21.762939     -2.5210372      61.492182      71.757117      51.252206      2              226150.45      1.2167285      9293.6873      11956.791     -3092.4301      870.73155     -626.36614     -17724.021     -26676.763     -45027.15       747          
    747200   300.15689     -25493.036      17950.58      -7542.4555     -1430.7409     -440.75008     -2505.3508     -1346.1218      0.13927487    -0.049071047    0.14944       -0.062078813   -0.050315927    0.13927487    -0.064089356    5.5832218      172.85733      6.4582139     -8.1895758     -2.3989844     -6.881544       61.372906      71.759614      51.320049      2              226018.43      1.2174393      9305.963       12129.711     -2811.5648      916.51655     -641.13047     -17715.954     -26676.577     -45033.662      747.2        
    747400   299.7061      -25720.515      17923.621     -7796.8935     -99.591094      818.97855     -2089.1352      971.3834       0.13930967    -0.051673855    0.14948       -0.062065634   -0.053056801    0.13930967    -0.064075305   -0.87552166     157.23936     -8.5721786     -0.41360812     13.807603      2.1914948      61.204921      71.762111      51.32077       2              225410.8       1.220721       9284.3676      12112.431     -3009.3753      911.00407     -599.55156     -17742.308     -26677.083     -45018.942      747.4        
    747600   296.53151     -25912.179      17733.768     -8178.4115     -75.055181     -4.6145594     -1415.847       1195.296       0.13934446    -0.053225391    0.14952       -0.060440596   -0.054694219    0.13934446    -0.062344233   -7.9555695      177.46025     -7.4822041     -8.5244595      1.6577422     -11.878158      61.104785      71.764609      51.409687      2              225439.75      1.2205642      9425.3742      11965.146     -3258.6142      894.50072     -544.55509     -17718.147     -26675.883     -44938.586      747.6        
    747800   298.04338     -25741.55       17824.184     -7917.3656     -503.52998      91.426736     -2511.528       909.51133      0.13937926    -0.053758825    0.14956       -0.058082207   -0.0552578      0.13937926    -0.059837276   -13.1435        141.04581     -2.3490126     -7.4449924      2.6601004      3.7525855      61.070357      71.767106      51.538731      2              225886.15      1.2181521      9317.3465      12146.963     -3037.2823      896.24485     -659.92554     -17728.936     -26675.96      -45064.822      747.8        
    748000   299.25631     -25446.962      17896.722     -7550.24       -706.52812      588.4772      -2410.0462     -298.01534      0.13941406    -0.054401422    0.1496        -0.057149769   -0.055937137    0.13941406    -0.058847831   -8.9453744      175.29861      24.014458     -3.9067298      2.1697725     -11.854571      61.028884      71.769603      51.589751      2              225964.08      1.2177321      9325.8456      12113.873     -2672.2506      921.82368     -736.65467     -17723.111     -26676.488     -45136.254      748          
    748200   298.1568      -25812.215      17830.967     -7981.2483     -217.52642     -336.97489     -1110.6465      795.04212      0.13944885    -0.05403674     0.14964       -0.058022063   -0.055551548    0.13944885    -0.059773426   -1.1352559      191.40844      7.5395749     -15.072631      9.690658      -4.2238219      61.052421      71.7721        51.542021      2              225849.95      1.2183474      9168.1887      12111.917     -2975.989       878.8421      -585.62571     -17731.694     -26677.854     -44995.174      748.2        
    748400   295.94702     -25660.148      17698.813     -7961.3351     -872.93717      913.69098     -2771.4984     -761.00407      0.13948364    -0.053011784    0.14968       -0.057902576   -0.054468629    0.13948364    -0.059646588    7.8045427      161.21035     -7.2615889      0.14474545    -2.9666043     -3.3056138      61.118571      71.774597      51.548559      2              226131.2       1.2168321      9363.8691      12183.375     -3064.0755      928.83272     -682.73867     -17713.319     -26676.092     -45072.15       748.4        
    748600   297.16468     -25855.259      17771.634     -8083.6245     -22.113806      1121.3453     -1909.8012      722.11453      0.13951843    -0.051912805    0.14972       -0.057799967   -0.053308804    0.13951843    -0.059537678   -11.686509      161.19384     -1.1407677      0.045109824   -0.6905162     -1.1531856      61.189499      71.777095      51.554174      2              226426.16      1.215247       9531.5907      11991.321     -3271.1919      900.21402     -605.83515     -17723.915     -26677.442     -45007.192      748.6        
    748800   297.09309     -25773.756      17767.353     -8006.4035     -1338.7853     -1038.4203     -2722.4951     -255.44065      0.13955322    -0.049789372    0.14976       -0.058663373   -0.051071605    0.13955322    -0.06045447    -8.5765038      179.45316      13.481681      2.2538362      11.836308      2.6520751      61.326546      71.779592      51.506931      2              226733.22      1.2136012      9177.715       12037.606     -2885.412       904.05566     -613.75144     -17717.434     -26676.536     -45007.721      748.8        
    749000   299.09366     -25557.67       17886.995     -7670.6751     -847.84012      41.425554     -3055.837       470.89105      0.13958801    -0.048317977    0.1498        -0.060145787   -0.04952431     0.13958801    -0.062030508    15.983867      149.25147     -7.8453991      3.7149701     -9.9335905     -6.6585295      61.421509      71.782089      51.425818      2              226734.59      1.2135938      9215.2516      12114.425     -2799.5042      916.02763     -592.82494     -17734.447     -26676.598     -45003.87       749          
    749200   299.57708     -25711.012      17915.905     -7795.1071     -694.28983     -624.30092     -999.30599     -459.26257      0.1396228     -0.048195972    0.14984       -0.062067275   -0.049396119    0.1396228     -0.064077054    16.925366      143.5          6.7746352     -3.3755494     -2.1952604     -6.6092694      61.429383      71.784586      51.32068       2              226307.93      1.2158819      9421.3517      12036.966     -3029.0518      892.29942     -638.16804     -17716.538     -26677.872     -45032.578      749.2        
    749400   299.11503     -25916.743      17888.273     -8028.4701      223.36432      747.5608      -1416.0925      1338.6246      0.13965759    -0.049615467    0.14988       -0.064724635   -0.050888604    0.13965759    -0.066914285    13.800376      179.49321      1.1588053     -12.372698      17.85334      -9.0281266      61.337769      71.787083      51.175278      2              225338.03      1.2211152      9358.0007      12058.967     -3228.6735      876.68378     -564.33934     -17741.6       -26675.782     -44981.721      749.4        
    749600   295.67129     -25802.062      17682.324     -8119.7381     -434.20141      506.0643      -962.39434     -846.2742       0.13969237    -0.049822526    0.14992       -0.065997113   -0.051106497    0.13969237    -0.068275749   -32.944005      146.38123     -28.18195      -0.62941621     11.425599     -13.632111      61.324406      71.789581      51.105652      2              224990.25      1.2230028      9274.9188      12117.005     -3012.9926      892.38333     -734.95123     -17662.122     -26676.303     -45073.376      749.6        
    749800   297.85466     -25989.223      17812.898     -8176.3257     -1105.8856     -455.84861     -2004.5197     -857.2885       0.13972716    -0.047204314    0.14996       -0.066100201   -0.048354789    0.13972716    -0.068386128   -10.634685      152.53231      12.826364     -4.1400483      0.79072656    -5.7857382      61.493385      71.792078      51.100012      2              225593.16      1.2197343      9208.1317      11870.416     -2851.3147      865.75247     -707.92103     -17697.37      -26676.918     -45082.209      749.8        
    750000   299.0302      -25948.584      17883.2       -8065.3847      464.77629      669.48665     -1044.6171      1769.4594      0.13976194    -0.04444313     0.15          -0.065727738   -0.045460999    0.13976194    -0.067987382   -1.7739114      164.92479     -15.782601     -16.721041     -8.1494762     -7.4482088      61.671592      71.794575      51.120392      2              226345.03      1.2156826      9419.1962      12032.984     -3223.0705      877.48477     -672.45607     -17706.865     -26675.858     -45055.179      750          
Loop time of 16431.4 on 16 procs for 750000 steps with 20064 atoms

Performance: 3.944 ns/day, 6.086 hours/ns, 45.644 timesteps/s, 915.809 katom-step/s
98.8% CPU use with 16 MPI tasks x no OpenMP threads

MPI task timing breakdown:
Section |  min time  |  avg time  |  max time  |%varavg| %total
---------------------------------------------------------------
Pair    | 9691.1     | 10508      | 11177      | 366.5 | 63.95
Bond    | 2824.8     | 2915.4     | 3019.8     | 104.1 | 17.74
Kspace  | 784.93     | 1539.8     | 2439.6     |1054.8 |  9.37
Neigh   | 752.74     | 753.17     | 753.53     |   0.8 |  4.58
Comm    | 197.53     | 200.26     | 202.95     |  11.6 |  1.22
Output  | 91.556     | 91.56      | 91.566     |   0.0 |  0.56
Modify  | 273.38     | 362.51     | 401.01     | 264.9 |  2.21
Other   |            | 60.97      |            |       |  0.37

Nlocal:           1254 ave        1309 max        1214 min
Histogram: 2 1 1 4 3 1 2 0 1 1
Nghost:        11900.2 ave       11967 max       11801 min
Histogram: 1 1 1 0 3 2 1 3 0 4
Neighs:         638817 ave      670182 max      591675 min
Histogram: 1 0 0 1 4 1 4 1 2 2

Total # of neighbors = 10221066
Ave neighs/atom = 509.42315
Ave special neighs/atom = 5.8041268
Neighbor list builds = 29023
Dangerous builds = 0

#-------------------Wrap up-------------------
write_restart  ${myid}.restart
write_restart  tensile_2_AroCy_L10_pxld_97_replicate_1_FF_PCFF-class2xe.restart
System init for write_restart ...
PPPM initialization ...
  using 12-bit tables for long-range coulomb (../kspace.cpp:342)
  G vector (1/distance) = 0.18032854
  grid = 15 18 15
  stencil order = 5
  estimated absolute RMS force accuracy = 0.029301166
  estimated relative force accuracy = 8.8239592e-05
  using double precision KISS FFT
  3d grid and FFT values/proc = 1638 300
Generated 45 of 45 mixed pair_coeff terms from sixthpower/sixthpower mixing rule
write_data     ${myid}.data
write_data     tensile_2_AroCy_L10_pxld_97_replicate_1_FF_PCFF-class2xe.data
System init for write_data ...
PPPM initialization ...
  using 12-bit tables for long-range coulomb (../kspace.cpp:342)
  G vector (1/distance) = 0.18032854
  grid = 15 18 15
  stencil order = 5
  estimated absolute RMS force accuracy = 0.029301166
  estimated relative force accuracy = 8.8239592e-05
  using double precision KISS FFT
  3d grid and FFT values/proc = 1638 300
Generated 45 of 45 mixed pair_coeff terms from sixthpower/sixthpower mixing rule
Total wall time: 4:33:52
