HEADER,  PBZ_graft.15.mol  read w/ mol2lmp > atom_typing v1.10 / 10 May 2024 w/PCFF-IFF atom-types > all2lmp: v1.21 / 13 November 2024  Class: 2

28 atoms
30 bonds
50 angles
71 dihedrals
20 impropers

5 atom types
8 bond types
14 angle types
22 dihedral types
10 improper types

-3.698150000 4.633450000 xlo xhi
-4.749653571 4.295546429 ylo yhi
-3.778992857 2.749607143 zlo zhi

Atom Type Labels

 1  c2
 2  cp
 3  hc
 4  nn
 5  op

Bond Type Labels

 1  c2-cp
 2  c2-hc
 3  c2-nn
 4  c2-op
 5  cp-cp
 6  cp-hc
 7  cp-nn
 8  cp-op

Angle Type Labels

 1  c2-cp-cp
 2  c2-nn-c2
 3  c2-nn-cp
 4  c2-op-cp
 5  cp-c2-hc
 6  cp-c2-nn
 7  cp-cp-cp
 8  cp-cp-hc
 9  cp-cp-nn
10  cp-cp-op
11  hc-c2-hc
12  hc-c2-nn
13  hc-c2-op
14  nn-c2-op

Dihedral Type Labels

 1  cp-c2-nn-cp
 2  hc-c2-cp-cp
 3  nn-c2-cp-cp
 4  cp-cp-cp-cp
 5  c2-cp-cp-cp
 6  hc-cp-cp-hc
 7  cp-cp-cp-hc
 8  c2-cp-cp-hc
 9  hc-cp-cp-nn
10  cp-cp-cp-nn
11  cp-cp-cp-op
12  c2-cp-cp-op
13  hc-cp-cp-op
14  cp-c2-nn-c2
15  hc-c2-nn-cp
16  hc-c2-nn-c2
17  op-c2-nn-cp
18  op-c2-nn-c2
19  cp-cp-nn-c2
20  hc-c2-op-cp
21  nn-c2-op-cp
22  cp-cp-op-c2

Improper Type Labels

 1  c2-cp-cp-cp-nb==3
 2  c2-nn-c2-cp-nb==3
 3  cp-cp-cp-hc-nb==3
 4  cp-cp-cp-nn-nb==3
 5  cp-cp-cp-op-nb==3
 6  cp-c2-hc-hc-nb!=3
 7  cp-c2-hc-nn-nb!=3
 8  hc-c2-hc-nn-nb!=3
 9  hc-c2-hc-op-nb!=3
10  hc-c2-nn-op-nb!=3

Masses

1   12.01115000  
2   12.01115000  
3    1.00797000  
4   14.00670000   
5   15.99940000  

Pair Coeffs  # lj/class2/coul/long

1         0.05400000      4.01000000 #  c2   
2         0.06400000      4.01000000 #  cp   
3         0.02000000      2.30000000 #  hc   
4         0.06500000      4.07000000 #  nn   
5         0.10900000      3.53500000 #  op   

Bond Coeffs  # class2

1         1.50100000    321.90210000   -521.82080000    572.16280000 #  c2          cp   
2         1.10100000    345.00000000   -691.89000000    844.60000000 #  c2          hc   
3         1.47000000    356.59880000      0.00000000      0.00000000 #  c2          nn   
4         1.38000000    346.54840000      0.00000000      0.00000000 #  c2          op   
5         1.41700000    470.83610000   -627.61790000   1327.63450000 #  cp          cp   
6         1.09820000    372.82510000   -803.45260000    894.31730000 #  cp          hc   
7         1.39120000    447.04380000   -784.53460000    886.16710000 #  cp          nn   
8         1.35970000    547.51690000   -834.06650000    544.30900000 #  cp          op   

Angle Coeffs  # class2

1       120.05000000     44.71480000    -22.73520000      0.00000000 #  c2         cp         cp   
2       120.00000000     50.00000000      0.00000000      0.00000000 #  c2         nn         c2   
3       120.00000000     50.00000000      0.00000000      0.00000000 #  c2         nn         cp   
4       108.00000000     75.00000000      0.00000000      0.00000000 #  c2         op         cp   
5       111.00000000     44.32340000     -9.44540000      0.00000000 #  cp         c2         hc   
6       114.00000000     50.00000000      0.00000000      0.00000000 #  cp         c2         nn   
7       118.90000000     61.02260000    -34.99310000      0.00000000 #  cp         cp         cp   
8       117.94000000     35.15580000    -12.46820000      0.00000000 #  cp         cp         hc   
9       121.45840000     61.06470000    -21.61720000      0.00000000 #  cp         cp         nn   
10      104.17000000    101.32060000    -17.30720000      0.00000000 #  cp         cp         op   
11      107.66000000     39.64100000    -12.92100000     -2.43180000 #  hc         c2         hc   
12      109.50000000     50.00000000      0.00000000      0.00000000 #  hc         c2         nn   
13      109.50000000     70.00000000      0.00000000      0.00000000 #  hc         c2         op   
14      109.50000000     70.00000000      0.00000000      0.00000000 #  nn         c2         op   

Dihedral Coeffs  # class2

1         0.00000000      0.00000000      0.00000000      0.00000000      0.00000000      0.00000000 #  cp         c2        nn         cp   
2        -0.28010000      0.00000000     -0.06780000      0.00000000     -0.01220000      0.00000000 #  hc         c2        cp         cp   
3         0.00000000      0.00000000      0.00000000      0.00000000      0.00000000      0.00000000 #  nn         c2        cp         cp   
4         8.36670000      0.00000000      1.19320000      0.00000000      0.00000000      0.00000000 #  cp         cp        cp         cp   
5         0.00000000      0.00000000      4.40720000      0.00000000      0.00000000      0.00000000 #  c2         cp        cp         cp   
6         0.00000000      0.00000000      1.87690000      0.00000000      0.00000000      0.00000000 #  hc         cp        cp         hc   
7         0.00000000      0.00000000      3.96610000      0.00000000      0.00000000      0.00000000 #  cp         cp        cp         hc   
8         0.00000000      0.00000000      1.55900000      0.00000000      0.00000000      0.00000000 #  c2         cp        cp         hc   
9         0.00000000      0.00000000      1.33310000      0.00000000      0.00000000      0.00000000 #  hc         cp        cp         nn   
10        0.00000000      0.00000000      5.38260000      0.00000000      0.00000000      0.00000000 #  cp         cp        cp         nn   
11        0.00000000      0.00000000     10.69230000      0.00000000      0.00000000      0.00000000 #  cp         cp        cp         op   
12        0.00000000      0.00000000      3.00000000      0.00000000      0.00000000      0.00000000 #  c2         cp        cp         op   
13        0.00000000      0.00000000      3.35160000      0.00000000      0.00000000      0.00000000 #  hc         cp        cp         op   
14        0.00000000      0.00000000      0.00000000      0.00000000      0.00000000      0.00000000 #  cp         c2        nn         c2   
15        0.00000000      0.00000000      0.00000000      0.00000000      0.00000000      0.00000000 #  hc         c2        nn         cp   
16        0.00000000      0.00000000      0.00000000      0.00000000      0.00000000      0.00000000 #  hc         c2        nn         c2   
17        0.00000000      0.00000000      0.00000000      0.00000000      0.00000000      0.00000000 #  op         c2        nn         cp   
18        0.00000000      0.00000000      0.00000000      0.00000000      0.00000000      0.00000000 #  op         c2        nn         c2   
19        0.00000000      0.00000000      2.25000000      0.00000000      0.00000000      0.00000000 #  cp         cp        nn         c2   
20        0.00000000      0.00000000      0.00000000      0.00000000      0.13000000      0.00000000 #  hc         c2        op         cp   
21        0.00000000      0.00000000      0.00000000      0.00000000      0.13000000      0.00000000 #  nn         c2        op         cp   
22        0.00000000      0.00000000      1.80000000      0.00000000      0.00000000      0.00000000 #  cp         cp        op         c2   

Improper Coeffs  # class2

1         7.81530000      0.00000000 #  c2         cp        cp        cp      nb==3   
2         0.10000000      0.00000000 #  c2         nn        c2        cp      nb==3   
3         4.89120000      0.00000000 #  cp         cp        cp        hc      nb==3   
4        10.78550000      0.00000000 #  cp         cp        cp        nn      nb==3   
5        10.00000000      0.00000000 #  cp         cp        cp        op      nb==3   
6         0.00000000      0.00000000 #  cp         c2        hc        hc      nb!=3   
7         0.00000000      0.00000000 #  cp         c2        hc        nn      nb!=3   
8         0.00000000      0.00000000 #  hc         c2        hc        nn      nb!=3   
9         0.00000000      0.00000000 #  hc         c2        hc        op      nb!=3   
10        0.00000000      0.00000000 #  hc         c2        nn        op      nb!=3   

BondBond Coeffs  # class2

1        12.06760000      1.50100000      1.41700000 #  c2         cp         cp   
2         0.00000000      1.47000000      1.47000000 #  c2         nn         c2   
3         0.00000000      1.47000000      1.39120000 #  c2         nn         cp   
4         0.00000000      1.38000000      1.35970000 #  c2         op         cp   
5         2.91680000      1.50100000      1.10100000 #  cp         c2         hc   
6         0.00000000      1.50100000      1.47000000 #  cp         c2         nn   
7        68.28560000      1.41700000      1.41700000 #  cp         cp         cp   
8         1.07950000      1.41700000      1.09820000 #  cp         cp         hc   
9        46.95130000      1.41700000      1.39120000 #  cp         cp         nn   
10       80.02900000      1.41700000      1.35970000 #  cp         cp         op   
11        5.33160000      1.10100000      1.10100000 #  hc         c2         hc   
12        0.00000000      1.10100000      1.47000000 #  hc         c2         nn   
13        0.00000000      1.10100000      1.38000000 #  hc         c2         op   
14        0.00000000      1.47000000      1.38000000 #  nn         c2         op   

BondAngle Coeffs  # class2

1        47.05790000     31.07710000      1.50100000      1.41700000 #  c2         cp         cp   
2         0.00000000      0.00000000      1.47000000      1.47000000 #  c2         nn         c2   
3         0.00000000      0.00000000      1.47000000      1.39120000 #  c2         nn         cp   
4         0.00000000      0.00000000      1.38000000      1.35970000 #  c2         op         cp   
5        26.46080000     11.77170000      1.50100000      1.10100000 #  cp         c2         hc   
6         0.00000000      0.00000000      1.50100000      1.47000000 #  cp         c2         nn   
7        28.87080000     28.87080000      1.41700000      1.41700000 #  cp         cp         cp   
8        20.00330000     24.21830000      1.41700000      1.09820000 #  cp         cp         hc   
9        39.40400000     73.65480000      1.41700000      1.39120000 #  cp         cp         nn   
10       97.67700000    187.82820000      1.41700000      1.35970000 #  cp         cp         op   
11       18.10300000     18.10300000      1.10100000      1.10100000 #  hc         c2         hc   
12        0.00000000      0.00000000      1.10100000      1.47000000 #  hc         c2         nn   
13        0.00000000      0.00000000      1.10100000      1.38000000 #  hc         c2         op   
14        0.00000000      0.00000000      1.47000000      1.38000000 #  nn         c2         op   

AngleAngleTorsion Coeffs  # class2

1         0.00000000    114.00000000    120.00000000 #  cp         c2        nn         cp   
2        -5.88880000    111.00000000    120.05000000 #  hc         c2        cp         cp   
3         0.00000000    114.00000000    120.05000000 #  nn         c2        cp         cp   
4         0.00000000    118.90000000    118.90000000 #  cp         cp        cp         cp   
5       -14.40970000    120.05000000    118.90000000 #  c2         cp        cp         cp   
6         0.35980000    117.94000000    117.94000000 #  hc         cp        cp         hc   
7        -4.81410000    118.90000000    117.94000000 #  cp         cp        cp         hc   
8         4.44440000    120.05000000    117.94000000 #  c2         cp        cp         hc   
9         0.00000000    117.94000000    121.45840000 #  hc         cp        cp         nn   
10        0.00000000    118.90000000    121.45840000 #  cp         cp        cp         nn   
11        0.00000000    118.90000000    104.17000000 #  cp         cp        cp         op   
12        0.00000000    120.05000000    104.17000000 #  c2         cp        cp         op   
13       -6.03170000    117.94000000    104.17000000 #  hc         cp        cp         op   
14        0.00000000    114.00000000    120.00000000 #  cp         c2        nn         c2   
15        0.00000000    109.50000000    120.00000000 #  hc         c2        nn         cp   
16        0.00000000    109.50000000    120.00000000 #  hc         c2        nn         c2   
17        0.00000000    109.50000000    120.00000000 #  op         c2        nn         cp   
18        0.00000000    109.50000000    120.00000000 #  op         c2        nn         c2   
19        0.00000000    121.45840000    120.00000000 #  cp         cp        nn         c2   
20        0.00000000    109.50000000    108.00000000 #  hc         c2        op         cp   
21        0.00000000    109.50000000    108.00000000 #  nn         c2        op         cp   
22        0.00000000    104.17000000    108.00000000 #  cp         cp        op         c2   

EndBondTorsion Coeffs  # class2

1         0.00000000      0.00000000      0.00000000      0.00000000      0.00000000      0.00000000      1.50100000      1.39120000 #  cp         c2        nn         cp   
2         1.39970000      0.77560000      0.00000000     -0.58350000      1.12200000      0.39780000      1.10100000      1.41700000 #  hc         c2        cp         cp   
3         0.00000000      0.00000000      0.00000000      0.00000000      0.00000000      0.00000000      1.47000000      1.41700000 #  nn         c2        cp         cp   
4        -0.11850000      6.32040000      0.00000000     -0.11850000      6.32040000      0.00000000      1.41700000      1.41700000 #  cp         cp        cp         cp   
5         0.00000000      0.24210000      0.00000000      0.00000000     -0.69180000      0.00000000      1.50100000      1.41700000 #  c2         cp        cp         cp   
6         0.00000000     -0.68900000      0.00000000      0.00000000     -0.68900000      0.00000000      1.09820000      1.09820000 #  hc         cp        cp         hc   
7         0.00000000     -6.89580000      0.00000000      0.00000000     -0.46690000      0.00000000      1.41700000      1.09820000 #  cp         cp        cp         hc   
8         0.00000000     -1.79700000      0.00000000      0.00000000     -0.48790000      0.00000000      1.50100000      1.09820000 #  c2         cp        cp         hc   
9         0.00000000     -2.64820000      0.00000000      0.00000000     -1.64020000      0.00000000      1.09820000      1.39120000 #  hc         cp        cp         nn   
10        0.00000000     -6.54040000      0.00000000      0.00000000     -7.34770000      0.00000000      1.41700000      1.39120000 #  cp         cp        cp         nn   
11        0.00000000    -30.54140000      0.00000000      0.00000000    -19.32850000      0.00000000      1.41700000      1.35970000 #  cp         cp        cp         op   
12        0.00000000      0.00000000      0.00000000      0.00000000      0.00000000      0.00000000      1.50100000      1.35970000 #  c2         cp        cp         op   
13        0.00000000     -2.25360000      0.00000000      0.00000000     -5.72590000      0.00000000      1.09820000      1.35970000 #  hc         cp        cp         op   
14        0.00000000      0.00000000      0.00000000      0.00000000      0.00000000      0.00000000      1.50100000      1.47000000 #  cp         c2        nn         c2   
15        0.00000000      0.00000000      0.00000000      0.00000000      0.00000000      0.00000000      1.10100000      1.39120000 #  hc         c2        nn         cp   
16        0.00000000      0.00000000      0.00000000      0.00000000      0.00000000      0.00000000      1.10100000      1.47000000 #  hc         c2        nn         c2   
17        0.00000000      0.00000000      0.00000000      0.00000000      0.00000000      0.00000000      1.38000000      1.39120000 #  op         c2        nn         cp   
18        0.00000000      0.00000000      0.00000000      0.00000000      0.00000000      0.00000000      1.38000000      1.47000000 #  op         c2        nn         c2   
19        0.00000000      0.00000000      0.00000000      0.00000000      0.00000000      0.00000000      1.41700000      1.47000000 #  cp         cp        nn         c2   
20        0.00000000      0.00000000      0.00000000      0.00000000      0.00000000      0.00000000      1.10100000      1.35970000 #  hc         c2        op         cp   
21        0.00000000      0.00000000      0.00000000      0.00000000      0.00000000      0.00000000      1.47000000      1.35970000 #  nn         c2        op         cp   
22        0.00000000      0.00000000      0.00000000      0.00000000      0.00000000      0.00000000      1.41700000      1.38000000 #  cp         cp        op         c2   

MiddleBondTorsion Coeffs  # class2

1         0.00000000      0.00000000      0.00000000      1.47000000 #  cp         c2        nn         cp   
2        -5.56790000      1.40830000      0.30100000      1.50100000 #  hc         c2        cp         cp   
3         0.00000000      0.00000000      0.00000000      1.50100000 #  nn         c2        cp         cp   
4        27.59890000     -2.31200000      0.00000000      1.41700000 #  cp         cp        cp         cp   
5         0.00000000      9.17920000      0.00000000      1.41700000 #  c2         cp        cp         cp   
6         0.00000000      4.82280000      0.00000000      1.41700000 #  hc         cp        cp         hc   
7         0.00000000     -1.15210000      0.00000000      1.41700000 #  cp         cp        cp         hc   
8         0.00000000      3.94210000      0.00000000      1.41700000 #  c2         cp        cp         hc   
9         0.00000000      2.28830000      0.00000000      1.41700000 #  hc         cp        cp         nn   
10        0.00000000     -0.56930000      0.00000000      1.41700000 #  cp         cp        cp         nn   
11        0.00000000     26.42720000      0.00000000      1.41700000 #  cp         cp        cp         op   
12        0.00000000      0.00000000      0.00000000      1.41700000 #  c2         cp        cp         op   
13        0.00000000      5.20060000      0.00000000      1.41700000 #  hc         cp        cp         op   
14        0.00000000      0.00000000      0.00000000      1.47000000 #  cp         c2        nn         c2   
15        0.00000000      0.00000000      0.00000000      1.47000000 #  hc         c2        nn         cp   
16        0.00000000      0.00000000      0.00000000      1.47000000 #  hc         c2        nn         c2   
17        0.00000000      0.00000000      0.00000000      1.47000000 #  op         c2        nn         cp   
18        0.00000000      0.00000000      0.00000000      1.47000000 #  op         c2        nn         c2   
19        0.00000000      0.00000000      0.00000000      1.39120000 #  cp         cp        nn         c2   
20        0.00000000      0.00000000      0.00000000      1.38000000 #  hc         c2        op         cp   
21        0.00000000      0.00000000      0.00000000      1.38000000 #  nn         c2        op         cp   
22        0.00000000      0.00000000      0.00000000      1.35970000 #  cp         cp        op         c2   

BondBond13 Coeffs  # class2

1         0.00000000      1.50100000      1.39120000 #  cp         c2        nn         cp   
2        -3.48260000      1.10100000      1.41700000 #  hc         c2        cp         cp   
3         0.00000000      1.47000000      1.41700000 #  nn         c2        cp         cp   
4        53.00000000      1.41700000      1.41700000 #  cp         cp        cp         cp   
5         2.50850000      1.50100000      1.41700000 #  c2         cp        cp         cp   
6        -1.70770000      1.09820000      1.09820000 #  hc         cp        cp         hc   
7        -6.27410000      1.41700000      1.09820000 #  cp         cp        cp         hc   
8         0.87430000      1.50100000      1.09820000 #  c2         cp        cp         hc   
9        -1.07460000      1.09820000      1.39120000 #  hc         cp        cp         nn   
10       -9.79990000      1.41700000      1.39120000 #  cp         cp        cp         nn   
11      -73.84100000      1.41700000      1.35970000 #  cp         cp        cp         op   
12        0.00000000      1.50100000      1.35970000 #  c2         cp        cp         op   
13       -1.71330000      1.09820000      1.35970000 #  hc         cp        cp         op   
14        0.00000000      1.50100000      1.47000000 #  cp         c2        nn         c2   
15        0.00000000      1.10100000      1.39120000 #  hc         c2        nn         cp   
16        0.00000000      1.10100000      1.47000000 #  hc         c2        nn         c2   
17        0.00000000      1.38000000      1.39120000 #  op         c2        nn         cp   
18        0.00000000      1.38000000      1.47000000 #  op         c2        nn         c2   
19        0.00000000      1.41700000      1.47000000 #  cp         cp        nn         c2   
20        0.00000000      1.10100000      1.35970000 #  hc         c2        op         cp   
21        0.00000000      1.47000000      1.35970000 #  nn         c2        op         cp   
22        0.00000000      1.41700000      1.38000000 #  cp         cp        op         c2   

AngleTorsion Coeffs  # class2

1         0.00000000      0.00000000      0.00000000      0.00000000      0.00000000      0.00000000    114.00000000    120.00000000 #  cp         c2        nn         cp   
2         4.62660000      0.16320000      0.04610000      0.22510000      0.65480000      0.12370000    111.00000000    120.05000000 #  hc         c2        cp         cp   
3         0.00000000      0.00000000      0.00000000      0.00000000      0.00000000      0.00000000    114.00000000    120.05000000 #  nn         c2        cp         cp   
4         1.97670000      1.02390000      0.00000000      1.97670000      1.02390000      0.00000000    118.90000000    118.90000000 #  cp         cp        cp         cp   
5         0.00000000     -4.46830000      0.00000000      0.00000000      3.89870000      0.00000000    120.05000000    118.90000000 #  c2         cp        cp         cp   
6         0.00000000      2.45010000      0.00000000      0.00000000      2.45010000      0.00000000    117.94000000    117.94000000 #  hc         cp        cp         hc   
7         0.00000000      2.50140000      0.00000000      0.00000000      2.71470000      0.00000000    118.90000000    117.94000000 #  cp         cp        cp         hc   
8         0.00000000     -0.12420000      0.00000000      0.00000000      3.46010000      0.00000000    120.05000000    117.94000000 #  c2         cp        cp         hc   
9         0.00000000      2.98130000      0.00000000      0.00000000      0.27870000      0.00000000    117.94000000    121.45840000 #  hc         cp        cp         nn   
10        0.00000000      9.09010000      0.00000000      0.00000000     -6.08820000      0.00000000    118.90000000    121.45840000 #  cp         cp        cp         nn   
11        0.00000000     15.07200000      0.00000000      0.00000000     22.83700000      0.00000000    118.90000000    104.17000000 #  cp         cp        cp         op   
12        0.00000000      0.00000000      0.00000000      0.00000000      0.00000000      0.00000000    120.05000000    104.17000000 #  c2         cp        cp         op   
13        0.00000000      3.17230000      0.00000000      0.00000000     -1.68820000      0.00000000    117.94000000    104.17000000 #  hc         cp        cp         op   
14        0.00000000      0.00000000      0.00000000      0.00000000      0.00000000      0.00000000    114.00000000    120.00000000 #  cp         c2        nn         c2   
15        0.00000000      0.00000000      0.00000000      0.00000000      0.00000000      0.00000000    109.50000000    120.00000000 #  hc         c2        nn         cp   
16        0.00000000      0.00000000      0.00000000      0.00000000      0.00000000      0.00000000    109.50000000    120.00000000 #  hc         c2        nn         c2   
17        0.00000000      0.00000000      0.00000000      0.00000000      0.00000000      0.00000000    109.50000000    120.00000000 #  op         c2        nn         cp   
18        0.00000000      0.00000000      0.00000000      0.00000000      0.00000000      0.00000000    109.50000000    120.00000000 #  op         c2        nn         c2   
19        0.00000000      0.00000000      0.00000000      0.00000000      0.00000000      0.00000000    121.45840000    120.00000000 #  cp         cp        nn         c2   
20        0.00000000      0.00000000      0.00000000      0.00000000      0.00000000      0.00000000    109.50000000    108.00000000 #  hc         c2        op         cp   
21        0.00000000      0.00000000      0.00000000      0.00000000      0.00000000      0.00000000    109.50000000    108.00000000 #  nn         c2        op         cp   
22        0.00000000      0.00000000      0.00000000      0.00000000      0.00000000      0.00000000    104.17000000    108.00000000 #  cp         cp        op         c2   

AngleAngle Coeffs  # class2

1         0.00000000      0.00000000      0.00000000    120.05000000    118.90000000    120.05000000 #  c2         cp        cp        cp      nb==3   
2         0.00000000      0.00000000      0.00000000    120.00000000    120.00000000    120.00000000 #  c2         nn        c2        cp      nb==3   
3         0.00000000      0.00000000      0.00000000    118.90000000    117.94000000    117.94000000 #  cp         cp        cp        hc      nb==3   
4         0.00000000      0.00000000      0.00000000    118.90000000    121.45840000    121.45840000 #  cp         cp        cp        nn      nb==3   
5         0.00000000      0.00000000      0.00000000    118.90000000    104.17000000    104.17000000 #  cp         cp        cp        op      nb==3   
6         2.37940000      3.01180000      2.37940000    111.00000000    111.00000000    107.66000000 #  cp         c2        hc        hc      nb!=3   
7         0.00000000      0.00000000      0.00000000    111.00000000    109.50000000    114.00000000 #  cp         c2        hc        nn      nb!=3   
8         0.00000000      0.00000000      0.00000000    107.66000000    109.50000000    109.50000000 #  hc         c2        hc        nn      nb!=3   
9         0.00000000      0.00000000      0.00000000    107.66000000    109.50000000    109.50000000 #  hc         c2        hc        op      nb!=3   
10        0.00000000      0.00000000      0.00000000    109.50000000    109.50000000    109.50000000 #  hc         c2        nn        op      nb!=3   

Atoms # full

  1     1   2   -0.126800   -2.050450000    -3.176153571    -1.127792857      0    0    0 #  cp/C
  2     1   2   -0.126800   -2.583450000    -2.509353571    -2.230992857      0    0    0 #  cp/C
  3     1   2   -0.126800   -2.336750000    -1.148053571    -2.409092857      0    0    0 #  cp/C
  4     1   2   -0.126800   -1.557250000    -0.453653571    -1.483992857      0    0    0 #  cp/C
  5     1   2    0.082700   -1.024450000    -1.120453571    -0.380792857      0    0    0 #  cp/C
  6     1   2   -0.126800   -1.271050000    -2.481753571    -0.202792857      0    0    0 #  cp/C
  7     1   4   -0.504300   -0.317050000    -0.490153571     0.458807143      0    0    0 #  nn/N
  8     1   1    0.104800    0.842050000    -1.020453571     1.163507143      0    0    0 #  c2/C
  9     1   5   -0.028300    2.069250000    -0.356053571     0.849307143      0    0    0 #  op/O
  10    1   2    0.028300    1.976250000     1.009746429     0.844407143      0    0    0 #  cp/C
  11    1   2    0.000000    0.749450000     1.678646429     0.844407143      0    0    0 #  cp/C
  12    1   1    0.104800   -0.525450000     0.890046429     0.883707143      0    0    0 #  c2/C
  13    1   2   -0.126800    3.173150000     1.723546429     0.807107143      0    0    0 #  cp/C
  14    1   2   -0.126800    3.151650000     3.117846429     0.796607143      0    0    0 #  cp/C
  15    1   2    0.000000    1.933050000     3.795546429     0.818707143      0    0    0 #  cp/C
  16    1   2   -0.126800    0.734550000     3.079646429     0.844407143      0    0    0 #  cp/C
  17    1   3    0.126800   -2.244950000    -4.249653571    -0.987392857      0    0    0 #  hc/H
  18    1   3    0.126800   -3.198150000    -3.056953571    -2.960392857      0    0    0 #  hc/H
  19    1   3    0.126800   -2.756950000    -0.622153571    -3.278992857      0    0    0 #  hc/H
  20    1   3    0.126800   -1.362750000     0.619846429    -1.624492857      0    0    0 #  hc/H
  21    1   3    0.126800   -0.850750000    -3.007653571     0.667207143      0    0    0 #  hc/H
  22    1   3    0.053000    0.949550000    -2.096253571     0.899107143      0    0    0 #  hc/H
  23    1   3    0.053000    0.658850000    -0.861153571     2.249607143      0    0    0 #  hc/H
  24    1   3    0.053000   -1.266550000     1.368346429     0.205007143      0    0    0 #  hc/H
  25    1   3    0.053000   -0.895650000     0.878946429     1.933307143      0    0    0 #  hc/H
  26    1   3    0.126800    4.133450000     1.187446429     0.786107143      0    0    0 #  hc/H
  27    1   3    0.126800    4.095150000     3.682746429     0.770807143      0    0    0 #  hc/H
  28    1   3    0.126800   -0.224750000     3.617546429     0.864607143      0    0    0 #  hc/H

Bonds

  1   5     1     2  
  2   5     1     6  
  3   6     1    17  
  4   5     2     3  
  5   6     2    18  
  6   5     3     4  
  7   6     3    19  
  8   5     4     5  
  9   6     4    20  
 10   5     5     6  
 11   7     5     7  
 12   6     6    21  
 13   3     8     7  
 14   3    12     7  