LAMMPS data and nta file via ensemble.ens2lmp(); Old names:	 c:\users\trist\onedrive\desktop\research\pbz\template and replicate creation\PBZ.mol2 > all2lmp: v1.18 / 28 April 2024  Class: 2

56 atoms
58 bonds
98 angles
133 dihedrals
44 impropers

11 atom types
12 bond types
20 angle types
29 dihedral types
14 improper types

-4.396496923 4.643003077 xlo xhi
-9.417096923 9.077503077 ylo yhi
-5.629901539 5.486898462 zlo zhi

Masses

1   12.01115000  #  c    
2   12.01115000  #  c2   
3   12.01115000  #  c2:new
4   12.01115000  #  c3   
5   12.01115000  #  cp   
6   12.01115000  #  cp:new
7    1.00797000  #  hc   
8    1.00797000  #  ho   
9   14.00670000  #  nn   
10  15.99940000  #  oh   
11  15.99940000  #  op   

Pair Coeffs  # lj/class2/coul/long

1         0.05400000      4.01000000 #  c    
2         0.05400000      4.01000000 #  c2   
3         0.05400000      4.01000000 #  c2:new
4         0.05400000      3.90000000 #  c3   
5         0.06400000      4.01000000 #  cp   
6         0.06400000      4.01000000 #  cp:new
7         0.02000000      2.30000000 #  hc   
8         0.01300000      1.09800000 #  ho   
9         0.06500000      4.07000000 #  nn   
10        0.24000000      3.53500000 #  oh   
11        0.10900000      3.53500000 #  op   

Bond Coeffs  # class2

1         1.53000000    299.67000000   -501.77000000    679.81000000 #  c           c3   
2         1.50100000    321.90210000   -521.82080000    572.16280000 #  c           cp   
3         1.50100000    321.90210000   -521.82080000    572.16280000 #  c2          cp   
4         1.10100000    345.00000000   -691.89000000    844.60000000 #  c2          hc   
5         1.47000000    356.59880000      0.00000000      0.00000000 #  c2          nn   
6         1.38000000    346.54840000      0.00000000      0.00000000 #  c2          op   
7         1.41700000    470.83610000   -627.61790000   1327.63450000 #  cp          cp   
8         1.09820000    372.82510000   -803.45260000    894.31730000 #  cp          hc   
9         1.39120000    447.04380000   -784.53460000    886.16710000 #  cp          nn   
10        1.37680000    428.87980000   -738.23510000   1114.96550000 #  cp          oh   
11        1.35970000    547.51690000   -834.06650000    544.30900000 #  cp          op   
12        0.96500000    532.50620000  -1282.90500000   2004.76580000 #  ho          oh   

Angle Coeffs  # class2

1       120.05000000     44.71480000    -22.73520000      0.00000000 #  c          cp         cp   
2       120.05000000     44.71480000    -22.73520000      0.00000000 #  c2         cp         cp   
3       120.00000000     50.00000000      0.00000000      0.00000000 #  c2         nn         c2   
4       120.00000000     50.00000000      0.00000000      0.00000000 #  c2         nn         cp   
5       108.00000000     75.00000000      0.00000000      0.00000000 #  c2         op         cp   
6       112.67000000     39.51600000     -7.44300000     -9.55830000 #  c3         c          c3   
7       108.40000000     43.95940000     -8.39240000     -9.33790000 #  c3         c          cp   
8       111.00000000     44.32340000     -9.44540000      0.00000000 #  cp         c          cp   
9       111.00000000     44.32340000     -9.44540000      0.00000000 #  cp         c2         hc   
10      114.00000000     50.00000000      0.00000000      0.00000000 #  cp         c2         nn   
11      118.90000000     61.02260000    -34.99310000      0.00000000 #  cp         cp         cp   
12      117.94000000     35.15580000    -12.46820000      0.00000000 #  cp         cp         hc   
13      121.45840000     61.06470000    -21.61720000      0.00000000 #  cp         cp         nn   
14      123.42000000     73.67810000    -21.67870000      0.00000000 #  cp         cp         oh   
15      104.17000000    101.32060000    -17.30720000      0.00000000 #  cp         cp         op   
16      108.19000000     53.12500000     -8.50160000      0.00000000 #  cp         oh         ho   
17      107.66000000     39.64100000    -12.92100000     -2.43180000 #  hc         c2         hc   
18      109.50000000     50.00000000      0.00000000      0.00000000 #  hc         c2         nn   
19      109.50000000     70.00000000      0.00000000      0.00000000 #  hc         c2         op   
20      109.50000000     70.00000000      0.00000000      0.00000000 #  nn         c2         op   

Dihedral Coeffs  # class2

1        -0.28020000      0.00000000     -0.06780000      0.00000000     -0.01220000      0.00000000 #  cp         c         cp         cp   
2        -0.28020000      0.00000000     -0.06780000      0.00000000     -0.01220000      0.00000000 #  c3         c         cp         cp   
3         0.00000000      0.00000000      0.00000000      0.00000000      0.00000000      0.00000000 #  cp         c2        nn         cp   
4        -0.28010000      0.00000000     -0.06780000      0.00000000     -0.01220000      0.00000000 #  hc         c2        cp         cp   
5         0.00000000      0.00000000      0.00000000      0.00000000      0.00000000      0.00000000 #  nn         c2        cp         cp   
6         8.36670000      0.00000000      1.19320000      0.00000000      0.00000000      0.00000000 #  cp         cp        cp         cp   
7         0.00000000      0.00000000      4.40720000      0.00000000      0.00000000      0.00000000 #  c          cp        cp         cp   
8         0.00000000      0.00000000      4.40720000      0.00000000      0.00000000      0.00000000 #  c2         cp        cp         cp   
9         0.00000000      0.00000000      1.55900000      0.00000000      0.00000000      0.00000000 #  c2         cp        cp         hc   
10        0.00000000      0.00000000      1.87690000      0.00000000      0.00000000      0.00000000 #  hc         cp        cp         hc   
11        0.00000000      0.00000000      3.96610000      0.00000000      0.00000000      0.00000000 #  cp         cp        cp         hc   
12        0.00000000      0.00000000      1.55900000      0.00000000      0.00000000      0.00000000 #  c          cp        cp         hc   
13        0.00000000      0.00000000      1.33310000      0.00000000      0.00000000      0.00000000 #  hc         cp        cp         nn   
14        0.00000000      0.00000000      5.38260000      0.00000000      0.00000000      0.00000000 #  cp         cp        cp         nn   
15        0.00000000      0.00000000      3.00000000      0.00000000      0.00000000      0.00000000 #  c2         cp        cp         oh   
16        0.00000000      0.00000000      1.72340000      0.00000000      0.00000000      0.00000000 #  hc         cp        cp         oh   
17        0.00000000      0.00000000      4.84980000      0.00000000      0.00000000      0.00000000 #  cp         cp        cp         oh   
18        0.00000000      0.00000000     10.69230000      0.00000000      0.00000000      0.00000000 #  cp         cp        cp         op   
19        0.00000000      0.00000000      3.00000000      0.00000000      0.00000000      0.00000000 #  c2         cp        cp         op   
20       -0.69000000      0.00000000      0.50970000      0.00000000      0.00950000      0.00000000 #  cp         cp        oh         ho   
21        0.00000000      0.00000000      0.00000000      0.00000000      0.00000000      0.00000000 #  cp         c2        nn         c2   
22        0.00000000      0.00000000      0.00000000      0.00000000      0.00000000      0.00000000 #  hc         c2        nn         cp   
23        0.00000000      0.00000000      0.00000000      0.00000000      0.00000000      0.00000000 #  hc         c2        nn         c2   
24        0.00000000      0.00000000      0.00000000      0.00000000      0.00000000      0.00000000 #  op         c2        nn         cp   
25        0.00000000      0.00000000      0.00000000      0.00000000      0.00000000      0.00000000 #  op         c2        nn         c2   
26        0.00000000      0.00000000      2.25000000      0.00000000      0.00000000      0.00000000 #  cp         cp        nn         c2   
27        0.00000000      0.00000000      0.00000000      0.00000000      0.13000000      0.00000000 #  hc         c2        op         cp   
28        0.00000000      0.00000000      0.00000000      0.00000000      0.13000000      0.00000000 #  nn         c2        op         cp   
29        0.00000000      0.00000000      1.80000000      0.00000000      0.00000000      0.00000000 #  cp         cp        op         c2   

Improper Coeffs  # class2

1         7.81530000      0.00000000 #  c          cp        cp        cp      nb==3   
2         7.81530000      0.00000000 #  c2         cp        cp        cp      nb==3   
3         0.10000000      0.00000000 #  c2         nn        c2        cp      nb==3   
4         4.89120000      0.00000000 #  cp         cp        cp        hc      nb==3   
5        10.78550000      0.00000000 #  cp         cp        cp        nn      nb==3   
6        13.04210000      0.00000000 #  cp         cp        cp        oh      nb==3   
7        10.00000000      0.00000000 #  cp         cp        cp        op      nb==3   
8         0.00000000      0.00000000 #  c3         c         c3        cp      nb!=3   
9         0.00000000      0.00000000 #  c3         c         cp        cp      nb!=3   
10        0.00000000      0.00000000 #  cp         c2        hc        hc      nb!=3   
11        0.00000000      0.00000000 #  cp         c2        hc        nn      nb!=3   
12        0.00000000      0.00000000 #  hc         c2        hc        nn      nb!=3   
13        0.00000000      0.00000000 #  hc         c2        hc        op      nb!=3   
14        0.00000000      0.00000000 #  hc         c2        nn        op      nb!=3   

BondBond Coeffs  # class2

1        12.06760000      1.50100000      1.41700000 #  c          cp         cp   
2        12.06760000      1.50100000      1.41700000 #  c2         cp         cp   
3         0.00000000      1.47000000      1.47000000 #  c2         nn         c2   
4         0.00000000      1.47000000      1.39120000 #  c2         nn         cp   
5         0.00000000      1.38000000      1.35970000 #  c2         op         cp   
6         0.00000000      1.53000000      1.53000000 #  c3         c          c3   
7         0.00000000      1.53000000      1.50100000 #  c3         c          cp   
8         0.00000000      1.50100000      1.50100000 #  cp         c          cp   
9         2.91680000      1.50100000      1.10100000 #  cp         c2         hc   
10        0.00000000      1.50100000      1.47000000 #  cp         c2         nn   
11       68.28560000      1.41700000      1.41700000 #  cp         cp         cp   
12        1.07950000      1.41700000      1.09820000 #  cp         cp         hc   
13       46.95130000      1.41700000      1.39120000 #  cp         cp         nn   
14       48.47540000      1.41700000      1.37680000 #  cp         cp         oh   
15       80.02900000      1.41700000      1.35970000 #  cp         cp         op   
16       20.65770000      1.37680000      0.96500000 #  cp         oh         ho   
17        5.33160000      1.10100000      1.10100000 #  hc         c2         hc   
18        0.00000000      1.10100000      1.47000000 #  hc         c2         nn   
19        0.00000000      1.10100000      1.38000000 #  hc         c2         op   
20        0.00000000      1.47000000      1.38000000 #  nn         c2         op   

BondAngle Coeffs  # class2

1        47.05790000     31.07710000      1.50100000      1.41700000 #  c          cp         cp   
2        47.05790000     31.07710000      1.50100000      1.41700000 #  c2         cp         cp   
3         0.00000000      0.00000000      1.47000000      1.47000000 #  c2         nn         c2   
4         0.00000000      0.00000000      1.47000000      1.39120000 #  c2         nn         cp   
5         0.00000000      0.00000000      1.38000000      1.35970000 #  c2         op         cp   
6         8.01600000      8.01600000      1.53000000      1.53000000 #  c3         c          c3   
7         0.00000000      0.00000000      1.53000000      1.50100000 #  c3         c          cp   
8         0.00000000      0.00000000      1.50100000      1.50100000 #  cp         c          cp   
9        26.46080000     11.77170000      1.50100000      1.10100000 #  cp         c2         hc   
10        0.00000000      0.00000000      1.50100000      1.47000000 #  cp         c2         nn   
11       28.87080000     28.87080000      1.41700000      1.41700000 #  cp         cp         cp   
12       20.00330000     24.21830000      1.41700000      1.09820000 #  cp         cp         hc   
13       39.40400000     73.65480000      1.41700000      1.39120000 #  cp         cp         nn   
14       58.47900000    107.68060000      1.41700000      1.37680000 #  cp         cp         oh   
15       97.67700000    187.82820000      1.41700000      1.35970000 #  cp         cp         op   
16       53.86140000     23.92240000      1.37680000      0.96500000 #  cp         oh         ho   
17       18.10300000     18.10300000      1.10100000      1.10100000 #  hc         c2         hc   
18        0.00000000      0.00000000      1.10100000      1.47000000 #  hc         c2         nn   
19        0.00000000      0.00000000      1.10100000      1.38000000 #  hc         c2         op   
20        0.00000000      0.00000000      1.47000000      1.38000000 #  nn         c2         op   

AngleAngleTorsion Coeffs  # class2

1         0.00000000    111.00000000    120.05000000 #  cp         c         cp         cp   
2         0.00000000    108.40000000    120.05000000 #  c3         c         cp         cp   
3         0.00000000    114.00000000    120.00000000 #  cp         c2        nn         cp   
4        -5.88880000    111.00000000    120.05000000 #  hc         c2        cp         cp   
5         0.00000000    114.00000000    120.05000000 #  nn         c2        cp         cp   
6         0.00000000    118.90000000    118.90000000 #  cp         cp        cp         cp   
7       -14.40970000    120.05000000    118.90000000 #  c          cp        cp         cp   
8       -14.40970000    120.05000000    118.90000000 #  c2         cp        cp         cp   
9         4.44440000    120.05000000    117.94000000 #  c2         cp        cp         hc   
10        0.35980000    117.94000000    117.94000000 #  hc         cp        cp         hc   
11       -4.81410000    118.90000000    117.94000000 #  cp         cp        cp         hc   
12        4.44440000    120.05000000    117.94000000 #  c          cp        cp         hc   
13        0.00000000    117.94000000    121.45840000 #  hc         cp        cp         nn   
14        0.00000000    118.90000000    121.45840000 #  cp         cp        cp         nn   
15        0.00000000    120.05000000    123.42000000 #  c2         cp        cp         oh   
16        4.22960000    117.94000000    123.42000000 #  hc         cp        cp         oh   
17      -21.02470000    118.90000000    123.42000000 #  cp         cp        cp         oh   
18        0.00000000    118.90000000    104.17000000 #  cp         cp        cp         op   
19        0.00000000    120.05000000    104.17000000 #  c2         cp        cp         op   
20       -4.60720000    123.42000000    108.19000000 #  cp         cp        oh         ho   
21        0.00000000    114.00000000    120.00000000 #  cp         c2        nn         c2   
22        0.00000000    109.50000000    120.00000000 #  hc         c2        nn         cp   
23        0.00000000    109.50000000    120.00000000 #  hc         c2        nn         c2   
24        0.00000000    109.50000000    120.00000000 #  op         c2        nn         cp   
25        0.00000000    109.50000000    120.00000000 #  op         c2        nn         c2   
26        0.00000000    121.45840000    120.00000000 #  cp         cp        nn         c2   
27        0.00000000    109.50000000    108.00000000 #  hc         c2        op         cp   
28        0.00000000    109.50000000    108.00000000 #  nn         c2        op         cp   
29        0.00000000    104.17000000    108.00000000 #  cp         cp        op         c2   

EndBondTorsion Coeffs  # class2

1         0.00000000      0.00000000      0.00000000      0.00000000      0.00000000      0.00000000      1.50100000      1.41700000 #  cp         c         cp         cp   
2         0.00000000      0.00000000      0.00000000      0.00000000      0.00000000      0.00000000      1.53000000      1.41700000 #  c3         c         cp         cp   
3         0.00000000      0.00000000      0.00000000      0.00000000      0.00000000      0.00000000      1.50100000      1.39120000 #  cp         c2        nn         cp   
4         1.39970000      0.77560000      0.00000000     -0.58350000      1.12200000      0.39780000      1.10100000      1.41700000 #  hc         c2        cp         cp   
5         0.00000000      0.00000000      0.00000000      0.00000000      0.00000000      0.00000000      1.47000000      1.41700000 #  nn         c2        cp         cp   
6        -0.11850000      6.32040000      0.00000000     -0.11850000      6.32040000      0.00000000      1.41700000      1.41700000 #  cp         cp        cp         cp   
7         0.00000000      0.24210000      0.00000000      0.00000000     -0.69180000      0.00000000      1.50100000      1.41700000 #  c          cp        cp         cp   
8         0.00000000      0.24210000      0.00000000      0.00000000     -0.69180000      0.00000000      1.50100000      1.41700000 #  c2         cp        cp         cp   
9         0.00000000     -1.79700000      0.00000000      0.00000000     -0.48790000      0.00000000      1.50100000      1.09820000 #  c2         cp        cp         hc   
10        0.00000000     -0.68900000      0.00000000      0.00000000     -0.68900000      0.00000000      1.09820000      1.09820000 #  hc         cp        cp         hc   
11        0.00000000     -6.89580000      0.00000000      0.00000000     -0.46690000      0.00000000      1.41700000      1.09820000 #  cp         cp        cp         hc   
12        0.00000000     -1.79700000      0.00000000      0.00000000     -0.48790000      0.00000000      1.50100000      1.09820000 #  c          cp        cp         hc   
13        0.00000000     -2.64820000      0.00000000      0.00000000     -1.64020000      0.00000000      1.09820000      1.39120000 #  hc         cp        cp         nn   
14        0.00000000     -6.54040000      0.00000000      0.00000000     -7.34770000      0.00000000      1.41700000      1.39120000 #  cp         cp        cp         nn   
15        0.00000000      0.00000000      0.00000000      0.00000000      0.00000000      0.00000000      1.50100000      1.37680000 #  c2         cp        cp         oh   
16        0.00000000     -1.58670000      0.00000000      0.00000000      4.26410000      0.00000000      1.09820000      1.37680000 #  hc         cp        cp         oh   
17        0.00000000      0.26550000      0.00000000      0.00000000      4.89050000      0.00000000      1.41700000      1.37680000 #  cp         cp        cp         oh   
18        0.00000000    -30.54140000      0.00000000      0.00000000    -19.32850000      0.00000000      1.41700000      1.35970000 #  cp         cp        cp         op   
19        0.00000000      0.00000000      0.00000000      0.00000000      0.00000000      0.00000000      1.50100000      1.35970000 #  c2         cp        cp         op   
20        0.90000000     -1.34560000      1.19000000      3.41320000      0.58730000     -0.13230000      1.41700000      0.96500000 #  cp         cp        oh         ho   
21        0.00000000      0.00000000      0.00000000      0.00000000      0.00000000      0.00000000      1.50100000      1.47000000 #  cp         c2        nn         c2   
22        0.00000000      0.00000000      0.00000000      0.00000000      0.00000000      0.00000000      1.10100000      1.39120000 #  hc         c2        nn         cp   
23        0.00000000      0.00000000      0.00000000      0.00000000      0.00000000      0.00000000      1.10100000      1.47000000 #  hc         c2        nn         c2   
24        0.00000000      0.00000000      0.00000000      0.00000000      0.00000000      0.00000000      1.38000000      1.39120000 #  op         c2        nn         cp   
25        0.00000000      0.00000000      0.00000000      0.00000000      0.00000000      0.00000000      1.38000000      1.47000000 #  op         c2        nn         c2   
26        0.00000000      0.00000000      0.00000000      0.00000000      0.00000000      0.00000000      1.41700000      1.47000000 #  cp         cp        nn         c2   
27        0.00000000      0.00000000      0.00000000      0.00000000      0.00000000      0.00000000      1.10100000      1.35970000 #  hc         c2        op         cp   
28        0.00000000      0.00000000      0.00000000      0.00000000      0.00000000      0.00000000      1.47000000      1.35970000 #  nn         c2        op         cp   
29        0.00000000      0.00000000      0.00000000      0.00000000      0.00000000      0.00000000      1.41700000      1.38000000 #  cp         cp        op         c2   

MiddleBondTorsion Coeffs  # class2

1         0.00000000      0.00000000      0.00000000      1.50100000 #  cp         c         cp         cp   
2         0.00000000      0.00000000      0.00000000      1.50100000 #  c3         c         cp         cp   
3         0.00000000      0.00000000      0.00000000      1.47000000 #  cp         c2        nn         cp   
4        -5.56790000      1.40830000      0.30100000      1.50100000 #  hc         c2        cp         cp   
5         0.00000000      0.00000000      0.00000000      1.50100000 #  nn         c2        cp         cp   
6        27.59890000     -2.31200000      0.00000000      1.41700000 #  cp         cp        cp         cp   
7         0.00000000      9.17920000      0.00000000      1.41700000 #  c          cp        cp         cp   
8         0.00000000      9.17920000      0.00000000      1.41700000 #  c2         cp        cp         cp   
9         0.00000000      3.94210000      0.00000000      1.41700000 #  c2         cp        cp         hc   
10        0.00000000      4.82280000      0.00000000      1.41700000 #  hc         cp        cp         hc   
11        0.00000000     -1.15210000      0.00000000      1.41700000 #  cp         cp        cp         hc   
12        0.00000000      3.94210000      0.00000000      1.41700000 #  c          cp        cp         hc   
13        0.00000000      2.28830000      0.00000000      1.41700000 #  hc         cp        cp         nn   
14        0.00000000     -0.56930000      0.00000000      1.41700000 #  cp         cp        cp         nn   
15        0.00000000      0.00000000      0.00000000      1.41700000 #  c2         cp        cp         oh   
16        0.00000000      5.54320000      0.00000000      1.41700000 #  hc         cp        cp         oh   
17        0.00000000      4.82550000      0.00000000      1.41700000 #  cp         cp        cp         oh   
18        0.00000000     26.42720000      0.00000000      1.41700000 #  cp         cp        cp         op   
19        0.00000000      0.00000000      0.00000000      1.41700000 #  c2         cp        cp         op   
20        1.15800000      3.26970000      3.51320000      1.37680000 #  cp         cp        oh         ho   
21        0.00000000      0.00000000      0.00000000      1.47000000 #  cp         c2        nn         c2   
22        0.00000000      0.00000000      0.00000000      1.47000000 #  hc         c2        nn         cp   
23        0.00000000      0.00000000      0.00000000      1.47000000 #  hc         c2        nn         c2   
24        0.00000000      0.00000000      0.00000000      1.47000000 #  op         c2        nn         cp   
25        0.00000000      0.00000000      0.00000000      1.47000000 #  op         c2        nn         c2   
26        0.00000000      0.00000000      0.00000000      1.39120000 #  cp         cp        nn         c2   
27        0.00000000      0.00000000      0.00000000      1.38000000 #  hc         c2        op         cp   
28        0.00000000      0.00000000      0.00000000      1.38000000 #  nn         c2        op         cp   
29        0.00000000      0.00000000      0.00000000      1.35970000 #  cp         cp        op         c2   

BondBond13 Coeffs  # class2

1         0.00000000      1.50100000      1.41700000 #  cp         c         cp         cp   
2         0.00000000      1.53000000      1.41700000 #  c3         c         cp         cp   
3         0.00000000      1.50100000      1.39120000 #  cp         c2        nn         cp   
4        -3.48260000      1.10100000      1.41700000 #  hc         c2        cp         cp   
5         0.00000000      1.47000000      1.41700000 #  nn         c2        cp         cp   
6        53.00000000      1.41700000      1.41700000 #  cp         cp        cp         cp   
7         2.50850000      1.50100000      1.41700000 #  c          cp        cp         cp   
8         2.50850000      1.50100000      1.41700000 #  c2         cp        cp         cp   
9         0.87430000      1.50100000      1.09820000 #  c2         cp        cp         hc   
10       -1.70770000      1.09820000      1.09820000 #  hc         cp        cp         hc   
11       -6.27410000      1.41700000      1.09820000 #  cp         cp        cp         hc   
12        0.87430000      1.50100000      1.09820000 #  c          cp        cp         hc   
13       -1.07460000      1.09820000      1.39120000 #  hc         cp        cp         nn   
14       -9.79990000      1.41700000      1.39120000 #  cp         cp        cp         nn   
15        0.00000000      1.50100000      1.37680000 #  c2         cp        cp         oh   
16        2.05170000      1.09820000      1.37680000 #  hc         cp        cp         oh   
17       -2.24360000      1.41700000      1.37680000 #  cp         cp        cp         oh   
18      -73.84100000      1.41700000      1.35970000 #  cp         cp        cp         op   
19        0.00000000      1.50100000      1.35970000 #  c2         cp        cp         op   
20        1.15900000      1.41700000      0.96500000 #  cp         cp        oh         ho   
21        0.00000000      1.50100000      1.47000000 #  cp         c2        nn         c2   
22        0.00000000      1.10100000      1.39120000 #  hc         c2        nn         cp   
23        0.00000000      1.10100000      1.47000000 #  hc         c2        nn         c2   
24        0.00000000      1.38000000      1.39120000 #  op         c2        nn         cp   
25        0.00000000      1.38000000      1.47000000 #  op         c2        nn         c2   
26        0.00000000      1.41700000      1.47000000 #  cp         cp        nn         c2   
27        0.00000000      1.10100000      1.35970000 #  hc         c2        op         cp   
28        0.00000000      1.47000000      1.35970000 #  nn         c2        op         cp   
29        0.00000000      1.41700000      1.38000000 #  cp         cp        op         c2   

AngleTorsion Coeffs  # class2

1         0.00000000      0.00000000      0.00000000      0.00000000      0.00000000      0.00000000    111.00000000    120.05000000 #  cp         c         cp         cp   
2         0.00000000      0.00000000      0.00000000      0.00000000      0.00000000      0.00000000    108.40000000    120.05000000 #  c3         c         cp         cp   
3         0.00000000      0.00000000      0.00000000      0.00000000      0.00000000      0.00000000    114.00000000    120.00000000 #  cp         c2        nn         cp   
4         4.62660000      0.16320000      0.04610000      0.22510000      0.65480000      0.12370000    111.00000000    120.05000000 #  hc         c2        cp         cp   
5         0.00000000      0.00000000      0.00000000      0.00000000      0.00000000      0.00000000    114.00000000    120.05000000 #  nn         c2        cp         cp   
6         1.97670000      1.02390000      0.00000000      1.97670000      1.02390000      0.00000000    118.90000000    118.90000000 #  cp         cp        cp         cp   
7         0.00000000     -4.46830000      0.00000000      0.00000000      3.89870000      0.00000000    120.05000000    118.90000000 #  c          cp        cp         cp   
8         0.00000000     -4.46830000      0.00000000      0.00000000      3.89870000      0.00000000    120.05000000    118.90000000 #  c2         cp        cp         cp   
9         0.00000000     -0.12420000      0.00000000      0.00000000      3.46010000      0.00000000    120.05000000    117.94000000 #  c2         cp        cp         hc   
10        0.00000000      2.45010000      0.00000000      0.00000000      2.45010000      0.00000000    117.94000000    117.94000000 #  hc         cp        cp         hc   
11        0.00000000      2.50140000      0.00000000      0.00000000      2.71470000      0.00000000    118.90000000    117.94000000 #  cp         cp        cp         hc   
12        0.00000000     -0.12420000      0.00000000      0.00000000      3.46010000      0.00000000    120.05000000    117.94000000 #  c          cp        cp         hc   
13        0.00000000      2.98130000      0.00000000      0.00000000      0.27870000      0.00000000    117.94000000    121.45840000 #  hc         cp        cp         nn   