HEADER,  DPET.mol2  read w/ mol2SYBYL2lmp > atom_typing v1.5 / 4 July 2023 w/PCFF-IFF atom-types > all2lmp: v1.8 / 4 July 2023  Class: 2

37 atoms
39 bonds
60 angles
86 dihedrals
19 impropers

8 atom types
8 bond types
11 angle types
14 dihedral types
5 improper types

-5.662402703 4.983897297 xlo xhi
-4.764135135 6.075364865 ylo yhi
-3.708045946 5.710954054 zlo zhi

Masses

1   12.01115000  #  c=2  
2   12.01115000  #  cp   
3    1.00797000  #  ho   
4    1.00797000  #  hpan 
5   15.99940000  #  o=   
6   15.99940000  #  o_1  
7   15.99940000  #  oc   
8   15.99940000  #  oh   

Pair Coeffs  # lj/class2/coul/long

1         0.06400000      4.01000000 #  c=2  
2         0.06400000      4.01000000 #  cp   
3         0.01300000      1.09800000 #  ho   
4         0.02000000      2.30000000 #  hpan 
5         0.28000000      3.25000000 #  o=   
6         0.26700000      3.30000000 #  o_1  
7         0.24000000      3.53500000 #  oc   
8         0.24000000      3.53500000 #  oh   

Bond Coeffs  # class2

1         1.50000000    322.80000000      0.00000000      0.00000000 #  c=2         cp   
2         1.16000000   1112.00000000      0.00000000      0.00000000 #  c=2         o=   
3         1.35500000    312.91160000      0.00000000      0.00000000 #  c=2        o_1   
4         1.36800000    355.19880000      0.00000000      0.00000000 #  c=2         oh   
5         1.41700000    470.83610000   -627.61790000   1327.63450000 #  cp          cp   
6         1.09820000    372.82510000   -803.45260000    894.31730000 #  cp        hpan   
7         1.37680000    428.87980000   -738.23510000   1114.96550000 #  cp          oc   
8         0.96500000    532.50620000  -1282.90500000   2004.76580000 #  ho          oh   

Angle Coeffs  # class2

1       120.00000000     80.00000000      0.00000000      0.00000000 #  c=2        cp         cp   
2       109.00000000     58.50000000      0.00000000      0.00000000 #  c=2        oh         ho   
3       120.00000000     36.20000000      0.00000000      0.00000000 #  cp        c=2         cp   
4       120.00000000     68.00000000      0.00000000      0.00000000 #  cp        c=2         o=   
5       120.00000000     68.00000000      0.00000000      0.00000000 #  cp        c=2        o_1   
6       120.00000000     68.00000000      0.00000000      0.00000000 #  cp        c=2         oh   
7       118.90000000     61.02260000    -34.99310000      0.00000000 #  cp         cp         cp   
8       117.94000000     35.15580000    -12.46820000      0.00000000 #  cp         cp       hpan   
9       123.42000000     73.67810000    -21.67870000      0.00000000 #  cp         cp         oc   
10      109.50000000     60.00000000      0.00000000      0.00000000 #  cp         oc         cp   
11      120.00000000     68.00000000      0.00000000      0.00000000 #  o=        c=2         oh   

Dihedral Coeffs  # class2

1         0.00000000      0.00000000      0.50000000      0.00000000      0.00000000      0.00000000 #  cp        c=2        cp         cp   
2         0.00000000      0.00000000      0.90000000      0.00000000      0.00000000      0.00000000 #  cp        c=2        oh         ho   
3         0.00000000      0.00000000      0.50000000      0.00000000      0.00000000      0.00000000 #  o=        c=2        cp         cp   
4         0.00000000      0.00000000      0.50000000      0.00000000      0.00000000      0.00000000 #  o_1       c=2        cp         cp   
5         0.00000000      0.00000000      0.50000000      0.00000000      0.00000000      0.00000000 #  oh        c=2        cp         cp   
6         8.36670000      0.00000000      1.19320000      0.00000000      0.00000000      0.00000000 #  cp         cp        cp         cp   
7         0.00000000      0.00000000      3.00000000      0.00000000      0.00000000      0.00000000 #  c=2        cp        cp         cp   
8         0.00000000      0.00000000      3.00000000      0.00000000      0.00000000      0.00000000 #  c=2        cp        cp       hpan   
9         0.00000000      0.00000000      1.87690000      0.00000000      0.00000000      0.00000000 #  hpan       cp        cp       hpan   
10        0.00000000      0.00000000      3.96610000      0.00000000      0.00000000      0.00000000 #  cp         cp        cp       hpan   
11        0.00000000      0.00000000      1.72340000      0.00000000      0.00000000      0.00000000 #  hpan       cp        cp         oc   
12        0.00000000      0.00000000      4.84980000      0.00000000      0.00000000      0.00000000 #  cp         cp        cp         oc   
13        0.00000000      0.00000000      1.80000000      0.00000000      0.00000000      0.00000000 #  cp         cp        oc         cp   
14        0.00000000      0.00000000      0.90000000      0.00000000      0.00000000      0.00000000 #  o=        c=2        oh         ho   

Improper Coeffs  # class2

1        10.00000000      0.00000000 #  c=2        cp        cp        cp      nb==3   
2         2.05680000      0.00000000 #  cp        c=2        cp       o_1      nb==3   
3         2.05680000      0.00000000 #  cp        c=2        o=        oh      nb==3   
4         4.89120000      0.00000000 #  cp         cp        cp       hpan     nb==3   
5        13.04210000      0.00000000 #  cp         cp        cp        oc      nb==3   

BondBond Coeffs  # class2

1         0.00000000      1.50000000      1.41700000 #  c=2        cp         cp   
2         0.00000000      1.36800000      0.96500000 #  c=2        oh         ho   
3         0.00000000      1.50000000      1.50000000 #  cp        c=2         cp   
4         0.00000000      1.50000000      1.16000000 #  cp        c=2         o=   
5         0.00000000      1.50000000      1.35500000 #  cp        c=2        o_1   
6         0.00000000      1.50000000      1.36800000 #  cp        c=2         oh   
7        68.28560000      1.41700000      1.41700000 #  cp         cp         cp   
8         1.07950000      1.41700000      1.09820000 #  cp         cp       hpan   
9        48.47540000      1.41700000      1.37680000 #  cp         cp         oc   
10        0.00000000      1.37680000      1.37680000 #  cp         oc         cp   
11        0.00000000      1.16000000      1.36800000 #  o=        c=2         oh   

BondAngle Coeffs  # class2

1         0.00000000      0.00000000      1.50000000      1.41700000 #  c=2        cp         cp   
2         0.00000000      0.00000000      1.36800000      0.96500000 #  c=2        oh         ho   
3         0.00000000      0.00000000      1.50000000      1.50000000 #  cp        c=2         cp   
4         0.00000000      0.00000000      1.50000000      1.16000000 #  cp        c=2         o=   
5         0.00000000      0.00000000      1.50000000      1.35500000 #  cp        c=2        o_1   
6         0.00000000      0.00000000      1.50000000      1.36800000 #  cp        c=2         oh   
7        28.87080000     28.87080000      1.41700000      1.41700000 #  cp         cp         cp   
8        20.00330000     24.21830000      1.41700000      1.09820000 #  cp         cp       hpan   
9        58.47900000    107.68060000      1.41700000      1.37680000 #  cp         cp         oc   
10        0.00000000      0.00000000      1.37680000      1.37680000 #  cp         oc         cp   
11        0.00000000      0.00000000      1.16000000      1.36800000 #  o=        c=2         oh   

AngleAngleTorsion Coeffs  # class2

1         0.00000000    120.00000000    120.00000000 #  cp        c=2        cp         cp   
2         0.00000000    120.00000000    109.00000000 #  cp        c=2        oh         ho   
3         0.00000000    120.00000000    120.00000000 #  o=        c=2        cp         cp   
4         0.00000000    120.00000000    120.00000000 #  o_1       c=2        cp         cp   
5         0.00000000    120.00000000    120.00000000 #  oh        c=2        cp         cp   
6         0.00000000    118.90000000    118.90000000 #  cp         cp        cp         cp   
7         0.00000000    120.00000000    118.90000000 #  c=2        cp        cp         cp   
8         0.00000000    120.00000000    117.94000000 #  c=2        cp        cp       hpan   
9         0.35980000    117.94000000    117.94000000 #  hpan       cp        cp       hpan   
10       -4.81410000    118.90000000    117.94000000 #  cp         cp        cp       hpan   
11        4.22960000    117.94000000    123.42000000 #  hpan       cp        cp         oc   
12      -21.02470000    118.90000000    123.42000000 #  cp         cp        cp         oc   
13        0.00000000    123.42000000    109.50000000 #  cp         cp        oc         cp   
14        0.00000000    120.00000000    109.00000000 #  o=        c=2        oh         ho   

EndBondTorsion Coeffs  # class2

1         0.00000000      0.00000000      0.00000000      0.00000000      0.00000000      0.00000000      1.50000000      1.41700000 #  cp        c=2        cp         cp   
2         0.00000000      0.00000000      0.00000000      0.00000000      0.00000000      0.00000000      1.50000000      0.96500000 #  cp        c=2        oh         ho   
3         0.00000000      0.00000000      0.00000000      0.00000000      0.00000000      0.00000000      1.16000000      1.41700000 #  o=        c=2        cp         cp   
4         0.00000000      0.00000000      0.00000000      0.00000000      0.00000000      0.00000000      1.35500000      1.41700000 #  o_1       c=2        cp         cp   
5         0.00000000      0.00000000      0.00000000      0.00000000      0.00000000      0.00000000      1.36800000      1.41700000 #  oh        c=2        cp         cp   
6        -0.11850000      6.32040000      0.00000000     -0.11850000      6.32040000      0.00000000      1.41700000      1.41700000 #  cp         cp        cp         cp   
7         0.00000000      0.00000000      0.00000000      0.00000000      0.00000000      0.00000000      1.50000000      1.41700000 #  c=2        cp        cp         cp   
8         0.00000000      0.00000000      0.00000000      0.00000000      0.00000000      0.00000000      1.50000000      1.09820000 #  c=2        cp        cp       hpan   
9         0.00000000     -0.68900000      0.00000000      0.00000000     -0.68900000      0.00000000      1.09820000      1.09820000 #  hpan       cp        cp       hpan   
10        0.00000000     -6.89580000      0.00000000      0.00000000     -0.46690000      0.00000000      1.41700000      1.09820000 #  cp         cp        cp       hpan   
11        0.00000000     -1.58670000      0.00000000      0.00000000      4.26410000      0.00000000      1.09820000      1.37680000 #  hpan       cp        cp         oc   
12        0.00000000      0.26550000      0.00000000      0.00000000      4.89050000      0.00000000      1.41700000      1.37680000 #  cp         cp        cp         oc   
13        0.00000000      0.00000000      0.00000000      0.00000000      0.00000000      0.00000000      1.41700000      1.37680000 #  cp         cp        oc         cp   
14        0.00000000      0.00000000      0.00000000      0.00000000      0.00000000      0.00000000      1.16000000      0.96500000 #  o=        c=2        oh         ho   

MiddleBondTorsion Coeffs  # class2

1         0.00000000      0.00000000      0.00000000      1.50000000 #  cp        c=2        cp         cp   
2         0.00000000      0.00000000      0.00000000      1.36800000 #  cp        c=2        oh         ho   
3         0.00000000      0.00000000      0.00000000      1.50000000 #  o=        c=2        cp         cp   
4         0.00000000      0.00000000      0.00000000      1.50000000 #  o_1       c=2        cp         cp   
5         0.00000000      0.00000000      0.00000000      1.50000000 #  oh        c=2        cp         cp   
6        27.59890000     -2.31200000      0.00000000      1.41700000 #  cp         cp        cp         cp   
7         0.00000000      0.00000000      0.00000000      1.41700000 #  c=2        cp        cp         cp   
8         0.00000000      0.00000000      0.00000000      1.41700000 #  c=2        cp        cp       hpan   
9         0.00000000      4.82280000      0.00000000      1.41700000 #  hpan       cp        cp       hpan   
10        0.00000000     -1.15210000      0.00000000      1.41700000 #  cp         cp        cp       hpan   
11        0.00000000      5.54320000      0.00000000      1.41700000 #  hpan       cp        cp         oc   
12        0.00000000      4.82550000      0.00000000      1.41700000 #  cp         cp        cp         oc   
13        0.00000000      0.00000000      0.00000000      1.37680000 #  cp         cp        oc         cp   
14        0.00000000      0.00000000      0.00000000      1.36800000 #  o=        c=2        oh         ho   

BondBond13 Coeffs  # class2

1         0.00000000      1.50000000      1.41700000 #  cp        c=2        cp         cp   
2         0.00000000      1.50000000      0.96500000 #  cp        c=2        oh         ho   
3         0.00000000      1.16000000      1.41700000 #  o=        c=2        cp         cp   
4         0.00000000      1.35500000      1.41700000 #  o_1       c=2        cp         cp   
5         0.00000000      1.36800000      1.41700000 #  oh        c=2        cp         cp   
6        53.00000000      1.41700000      1.41700000 #  cp         cp        cp         cp   
7         0.00000000      1.50000000      1.41700000 #  c=2        cp        cp         cp   
8         0.00000000      1.50000000      1.09820000 #  c=2        cp        cp       hpan   
9        -1.70770000      1.09820000      1.09820000 #  hpan       cp        cp       hpan   
10       -6.27410000      1.41700000      1.09820000 #  cp         cp        cp       hpan   
11        2.05170000      1.09820000      1.37680000 #  hpan       cp        cp         oc   
12       -2.24360000      1.41700000      1.37680000 #  cp         cp        cp         oc   
13        0.00000000      1.41700000      1.37680000 #  cp         cp        oc         cp   
14        0.00000000      1.16000000      0.96500000 #  o=        c=2        oh         ho   

AngleTorsion Coeffs  # class2

1         0.00000000      0.00000000      0.00000000      0.00000000      0.00000000      0.00000000    120.00000000    120.00000000 #  cp        c=2        cp         cp   
2         0.00000000      0.00000000      0.00000000      0.00000000      0.00000000      0.00000000    120.00000000    109.00000000 #  cp        c=2        oh         ho   
3         0.00000000      0.00000000      0.00000000      0.00000000      0.00000000      0.00000000    120.00000000    120.00000000 #  o=        c=2        cp         cp   
4         0.00000000      0.00000000      0.00000000      0.00000000      0.00000000      0.00000000    120.00000000    120.00000000 #  o_1       c=2        cp         cp   
5         0.00000000      0.00000000      0.00000000      0.00000000      0.00000000      0.00000000    120.00000000    120.00000000 #  oh        c=2        cp         cp   
6         1.97670000      1.02390000      0.00000000      1.97670000      1.02390000      0.00000000    118.90000000    118.90000000 #  cp         cp        cp         cp   
7         0.00000000      0.00000000      0.00000000      0.00000000      0.00000000      0.00000000    120.00000000    118.90000000 #  c=2        cp        cp         cp   
8         0.00000000      0.00000000      0.00000000      0.00000000      0.00000000      0.00000000    120.00000000    117.94000000 #  c=2        cp        cp       hpan   
9         0.00000000      2.45010000      0.00000000      0.00000000      2.45010000      0.00000000    117.94000000    117.94000000 #  hpan       cp        cp       hpan   
10        0.00000000      2.50140000      0.00000000      0.00000000      2.71470000      0.00000000    118.90000000    117.94000000 #  cp         cp        cp       hpan   
11        0.00000000      1.87290000      0.00000000      0.00000000      2.57060000      0.00000000    117.94000000    123.42000000 #  hpan       cp        cp         oc   
12        0.00000000     10.01550000      0.00000000      0.00000000      1.74040000      0.00000000    118.90000000    123.42000000 #  cp         cp        cp         oc   
13        0.00000000      0.00000000      0.00000000      0.00000000      0.00000000      0.00000000    123.42000000    109.50000000 #  cp         cp        oc         cp   
14        0.00000000      0.00000000      0.00000000      0.00000000      0.00000000      0.00000000    120.00000000    109.00000000 #  o=        c=2        oh         ho   

AngleAngle Coeffs  # class2

1         0.00000000      0.00000000      0.00000000    120.00000000    118.90000000    120.00000000 #  c=2        cp        cp        cp      nb==3   
2         0.00000000      0.00000000      0.00000000    120.00000000    120.00000000    120.00000000 #  cp        c=2        cp       o_1      nb==3   
3         0.00000000      0.00000000      0.00000000    120.00000000    120.00000000    120.00000000 #  cp        c=2        o=        oh      nb==3   
4         0.00000000      0.00000000      0.00000000    118.90000000    117.94000000    117.94000000 #  cp         cp        cp       hpan     nb==3   
5         0.00000000      0.00000000      0.00000000    118.90000000    123.42000000    123.42000000 #  cp         cp        cp        oc      nb==3   

Atoms # full

 1  1  2    0.026500   -2.372802703     3.414764865    -1.153245946      0    0    0 #  cp/C
 2  1  2   -0.126800   -3.070202703     4.622764865    -1.153245946      0    0    0 #  cp/C
 3  1  2   -0.126800   -4.465002703     4.622764865    -1.153145946      0    0    0 #  cp/C
 4  1  2    0.000000   -5.162402703     3.414764865    -1.153145946      0    0    0 #  cp/C
 5  1  2   -0.126800   -4.465102703     2.206864865    -1.153245946      0    0    0 #  cp/C
 6  1  2   -0.126800   -3.070202703     2.206864865    -1.153245946      0    0    0 #  cp/C
 7  1  7   -0.053000   -1.017802703     3.414764865    -1.153245946      0    0    0 #  oc/O
 8  1  2    0.000000    0.534697297    -0.428035135    -1.153045946      0    0    0 #  cp/C
 9  1  2   -0.126800    0.619597297     0.358364865    -0.004245946      0    0    0 #  cp/C
10  1  2   -0.126800    0.097097297     1.651664865    -0.004345946      0    0    0 #  cp/C
11  1  2    0.026500   -0.510202703     2.158464865    -1.153245946      0    0    0 #  cp/C
12  1  2   -0.126800   -0.595102703     1.371964865    -2.302045946      0    0    0 #  cp/C
13  1  2   -0.126800   -0.072602703     0.078664865    -2.301945946      0    0    0 #  cp/C
14  1  1    0.358300    1.040697297    -1.680735135    -1.153045946      0    0    0 #  c=2/C
15  1  2   -0.126800    2.843697297    -2.850435135    -0.135145946      0    0    0 #  cp/C
16  1  2   -0.126800    3.451097297    -3.357235135     1.013654054      0    0    0 #  cp/C
17  1  2    0.000000    2.843597297    -3.185235135     2.257354054      0    0    0 #  cp/C
18  1  2   -0.126800    1.628797297    -2.506435135     2.352354054      0    0    0 #  cp/C
19  1  2   -0.126800    1.021497297    -1.999535135     1.203554054      0    0    0 #  cp/C
20  1  2    0.000000    1.628997297    -2.171635135    -0.040245946      0    0    0 #  cp/C
21  1  1    0.146500    3.431797297    -3.676135135     3.370154054      0    0    0 #  c=2/C
22  1  8   -0.450600    2.848997297    -3.511235135     4.563254054      0    0    0 #  oh/O
23  1  5   -0.120000    4.483897297    -4.264135135     3.287954054      0    0    0 #  o=/O
24  1  6   -0.358300    0.967197297    -2.361935135    -2.147945946      0    0    0 #  o_1/O
25  1  4    0.126800   -2.520202703     5.575364865    -1.153345946      0    0    0 #  hpan/H
26  1  4    0.126800   -5.015002703     5.575364865    -1.153145946      0    0    0 #  hpan/H
27  1  4    0.126800   -5.015102703     1.254164865    -1.153345946      0    0    0 #  hpan/H
28  1  4    0.126800   -2.520202703     1.254264865    -1.153245946      0    0    0 #  hpan/H
29  1  4    0.126800    1.098697297    -0.041235135     0.901654054      0    0    0 #  hpan/H
30  1  4    0.126800    0.163997297     2.271964865     0.901654054      0    0    0 #  hpan/H
31  1  4    0.126800   -1.074002703     1.771664865    -3.208045946      0    0    0 #  hpan/H
32  1  4    0.126800   -0.139602703    -0.541635135    -3.207945946      0    0    0 #  hpan/H
33  1  4    0.126800    3.322797297    -2.986135135    -1.116045946      0    0    0 #  hpan/H
34  1  4    0.126800    4.409197297    -3.892435135     0.938754054      0    0    0 #  hpan/H
35  1  4    0.126800    1.149697297    -2.370835135     3.333154054      0    0    0 #  hpan/H
36  1  4    0.126800    0.063497297    -1.464135135     1.278454054      0    0    0 #  hpan/H
37  1  3    0.424100    3.435997297    -3.936335135     5.210954054      0    0    0 #  ho/H

Bonds

  1   5     1     2  
  2   5     1     6  
  3   7     1     7  
  4   5     2     3  
  5   6     2    25  
  6   5     3     4  
  7   6     3    26  
  8   5     4     5  
  9   5     5     6  
 10   6     5    27  
 11   6     6    28  
 12   7    11     7  
 13   5     8     9  
 14   5     8    13  
 15   1    14     8  
 16   5     9    10  
 17   6     9    29  
 18   5    10    11  
 19   6    10    30  
 20   5    11    12  
 21   5    12    13  
 22   6    12    31  
 23   6    13    32  
 24   1    14    20  
 25   3    14    24  
 26   5    15    16  
 27   5    15    20  
 28   6    15    33  
 29   5    16    17  
 30   6    16    34  
 31   5    17    18  
 32   1    21    17  
 33   5    18    19  
 34   6    18    35  
 35   5    19    20  
 36   6    19    36  
 37   4    21    22  
 38   2    21    23  
 39   8    37    22  

Angles

  1   7     2     1     6  
  2   9     6     1     7  
  3   9     2     1     7  
  4   8     3     2    25  
  5   8     1     2    25  
  6   7     1     2     3  
  7   8     4     3    26  
  8   8     2     3    26  
  9   7     2     3     4  
 10   7     3     4     5  
 11   7     4     5     6  
 12   8     4     5    27  
 13   8     6     5    27  
 14   7     1     6     5  
 15   8     5     6    28  
 16   8     1     6    28  
 17   10    1     7    11  
 18   1    14     8    13  
 19   1    14     8     9  
 20   7     9     8    13  
 21   8     8     9    29  
 22   8    10     9    29  
 23   7     8     9    10  
 24   8     9    10    30  
 25   8    11    10    30  
 26   7     9    10    11  
 27   7    10    11    12  
 28   9    12    11     7  
 29   9    10    11     7  
 30   7    11    12    13  
 31   8    11    12    31  
 32   8    13    12    31  
 33   8    12    13    32  
 34   8     8    13    32  
 35   7     8    13    12  
 36   5    20    14    24  
 37   5     8    14    24  
 38   3     8    14    20  
 39   7    16    15    20  
 40   8    20    15    33  
 41   8    16    15    33  
 42   8    15    16    34  
 43   7    15    16    17  
 44   8    17    16    34  
 45   7    16    17    18  
 46   1    21    17    16  
 47   1    21    17    18  
 48   8    17    18    35  
 49   7    17    18    19  
 50   8    19    18    35  
 51   8    18    19    36  
 52   8    20    19    36  
 53   7    18    19    20  
 54   7    15    20    19  
 55   1    14    20    19  
 56   1    14    20    15  
 57   4    17    21    23  
 58   6    17    21    22  
 59   11   23    21    22  
 60   2    21    22    37  

Dihedrals

  1   13    6     1     7    11  
  2   11   28     6     1     7  
  3   6     2     1     6     5  
  4   11   25     2     1     7  
  5   10    2     1     6    28  
  6   13    2     1     7    11  
  7   10    6     1     2    25  
  8   6     1     2     3     4  
  9   12    3     2     1     7  
 10   9    25     2     3    26  
 11   10    1     2     3    26  
 12   6     3     2     1     6  
 13   10    4     3     2    25  
 14   6     2     3     4     5  
 15   6     3     4     5     6  
 16   10    3     4     5    27  
 17   10    5     4     3    26  
 18   9    27     5     6    28  
 19   10    4     5     6    28  
 20   12    5     6     1     7  
 21   10    1     6     5    27  
 22   6     1     6     5     4  
 23   13   10    11     7     1  
 24   13   12    11     7     1  
 25   4    24    14     8     9  
 26   4    24    14     8    13  
 27   10   13     8     9    29  
 28   1    20    14     8     9  
 29   6     9     8    13    12  
 30   8    14     8     9    29  
 31   10    9     8    13    32  
 32   1    20    14     8    13  
 33   8    14     8    13    32  
 34   6     8     9    10    11  
 35   6    10     9     8    13  
 36   9    29     9    10    30  
 37   10    8     9    10    30  
 38   7    14     8     9    10  
 39   10   11    10     9    29  
 40   6     9    10    11    12  
 41   11   30    10    11     7  
 42   6    10    11    12    13  
 43   10   10    11    12    31  
 44   12    9    10    11     7  
 45   12   13    12    11     7  
 46   11   31    12    11     7  
 47   10   12    11    10    30  
 48   9    31    12    13    32  
 49   10   11    12    13    32  
 50   6     8    13    12    11  
 51   10    8    13    12    31  
 52   7    14     8    13    12  
 53   1     8    14    20    15  
 54   1     8    14    20    19  
 55   6    16    15    20    19  
 56   9    33    15    16    34  
 57   10   20    15    16    34  
 58   6    17    16    15    20  
 59   7    21    17    16    15  
 60   10   17    16    15    33  
 61   6    15    16    17    18  
 62   3    23    21    17    18  
 63   8    21    17    16    34  
 64   5    22    21    17    16  
 65   10   16    17    18    35  
 66   6    16    17    18    19  
 67   8    21    17    18    35  
 68   5    22    21    17    18  
 69   10   18    17    16    34  
 70   3    23    21    17    16  
 71   10   17    18    19    36  
 72   6    17    18    19    20  
 73   7    21    17    18    19  
 74   9    35    18    19    36  
 75   10   20    19    18    35  
 76   4    24    14    20    19  
 77   7    14    20    15    16  
 78   7    14    20    19    18  
 79   8    14    20    19    36  
 80   6    15    20    19    18  
 81   10   15    20    19    36  
 82   4    24    14    20    15  
 83   10   19    20    15    33  
 84   8    14    20    15    33  
 85   2    17    21    22    37  
 86   14   23    21    22    37  

Impropers

  1   5     2     1     6     7  
  2   4     1     2     3    25  
  3   4     2     3     4    26  
  4   4     4     5     6    27  
  5   4     1     6     5    28  
  6   1    14     8     9    13  
  7   4     8     9    10    29  
  8   4     9    10    11    30  
  9   5    10    11    12     7  
 10   4    11    12    13    31  
 11   4     8    13    12    32  
 12   2     8    14    20    24  
 13   4    16    15    20    33  
 14   4    15    16    17    34  
 15   1    21    17    16    18  
 16   4    17    18    19    35  
 17   4    18    19    20    36  
 18   1    14    20    15    19  
 19   3    17    21    23    22  
