HEADER,  pre1_create_atoms.mol2  read w/ mol2SYBYL2lmp > atom_typing v1.5 / 4 July 2023 w/PCFF-IFF atom-types > all2lmp: v1.8 / 4 July 2023  Class: 2 CreateIDs = [10]

11 atoms
11 bonds
16 angles
20 dihedrals
5 impropers

3 atom types
3 bond types
3 angle types
5 dihedral types
2 improper types

-2.144836364 2.999863636 xlo xhi
-2.660600000 2.660600000 ylo yhi
-0.500109091 0.500090909 zlo zhi

Masses

1   12.01115000  #  cp   
2    1.00797000  #  hpan 
3   15.99940000  #  oc   

Pair Coeffs  # lj/class2/coul/long

1         0.06400000      4.01000000 #  cp   
2         0.02000000      2.30000000 #  hpan 
3         0.24000000      3.53500000 #  oc   

Bond Coeffs  # class2

1         1.41700000    470.83610000   -627.61790000   1327.63450000 #  cp          cp   
2         1.09820000    372.82510000   -803.45260000    894.31730000 #  cp        hpan   
3         1.37680000    428.87980000   -738.23510000   1114.96550000 #  cp          oc   

Angle Coeffs  # class2

1       118.90000000     61.02260000    -34.99310000      0.00000000 #  cp         cp         cp   
2       117.94000000     35.15580000    -12.46820000      0.00000000 #  cp         cp       hpan   
3       123.42000000     73.67810000    -21.67870000      0.00000000 #  cp         cp         oc   

Dihedral Coeffs  # class2

1         8.36670000      0.00000000      1.19320000      0.00000000      0.00000000      0.00000000 #  cp         cp        cp         cp   
2         0.00000000      0.00000000      1.87690000      0.00000000      0.00000000      0.00000000 #  hpan       cp        cp       hpan   
3         0.00000000      0.00000000      3.96610000      0.00000000      0.00000000      0.00000000 #  cp         cp        cp       hpan   
4         0.00000000      0.00000000      1.72340000      0.00000000      0.00000000      0.00000000 #  hpan       cp        cp         oc   
5         0.00000000      0.00000000      4.84980000      0.00000000      0.00000000      0.00000000 #  cp         cp        cp         oc   

Improper Coeffs  # class2

1         4.89120000      0.00000000 #  cp         cp        cp       hpan     nb==3   
2        13.04210000      0.00000000 #  cp         cp        cp        oc      nb==3   

BondBond Coeffs  # class2

1        68.28560000      1.41700000      1.41700000 #  cp         cp         cp   
2         1.07950000      1.41700000      1.09820000 #  cp         cp       hpan   
3        48.47540000      1.41700000      1.37680000 #  cp         cp         oc   

BondAngle Coeffs  # class2

1        28.87080000     28.87080000      1.41700000      1.41700000 #  cp         cp         cp   
2        20.00330000     24.21830000      1.41700000      1.09820000 #  cp         cp       hpan   
3        58.47900000    107.68060000      1.41700000      1.37680000 #  cp         cp         oc   

AngleAngleTorsion Coeffs  # class2

1         0.00000000    118.90000000    118.90000000 #  cp         cp        cp         cp   
2         0.35980000    117.94000000    117.94000000 #  hpan       cp        cp       hpan   
3        -4.81410000    118.90000000    117.94000000 #  cp         cp        cp       hpan   
4         4.22960000    117.94000000    123.42000000 #  hpan       cp        cp         oc   
5       -21.02470000    118.90000000    123.42000000 #  cp         cp        cp         oc   

EndBondTorsion Coeffs  # class2

1        -0.11850000      6.32040000      0.00000000     -0.11850000      6.32040000      0.00000000      1.41700000      1.41700000 #  cp         cp        cp         cp   
2         0.00000000     -0.68900000      0.00000000      0.00000000     -0.68900000      0.00000000      1.09820000      1.09820000 #  hpan       cp        cp       hpan   
3         0.00000000     -6.89580000      0.00000000      0.00000000     -0.46690000      0.00000000      1.41700000      1.09820000 #  cp         cp        cp       hpan   
4         0.00000000     -1.58670000      0.00000000      0.00000000      4.26410000      0.00000000      1.09820000      1.37680000 #  hpan       cp        cp         oc   
5         0.00000000      0.26550000      0.00000000      0.00000000      4.89050000      0.00000000      1.41700000      1.37680000 #  cp         cp        cp         oc   

MiddleBondTorsion Coeffs  # class2

1        27.59890000     -2.31200000      0.00000000      1.41700000 #  cp         cp        cp         cp   
2         0.00000000      4.82280000      0.00000000      1.41700000 #  hpan       cp        cp       hpan   
3         0.00000000     -1.15210000      0.00000000      1.41700000 #  cp         cp        cp       hpan   
4         0.00000000      5.54320000      0.00000000      1.41700000 #  hpan       cp        cp         oc   
5         0.00000000      4.82550000      0.00000000      1.41700000 #  cp         cp        cp         oc   

BondBond13 Coeffs  # class2

1        53.00000000      1.41700000      1.41700000 #  cp         cp        cp         cp   
2        -1.70770000      1.09820000      1.09820000 #  hpan       cp        cp       hpan   
3        -6.27410000      1.41700000      1.09820000 #  cp         cp        cp       hpan   
4         2.05170000      1.09820000      1.37680000 #  hpan       cp        cp         oc   
5        -2.24360000      1.41700000      1.37680000 #  cp         cp        cp         oc   

AngleTorsion Coeffs  # class2

1         1.97670000      1.02390000      0.00000000      1.97670000      1.02390000      0.00000000    118.90000000    118.90000000 #  cp         cp        cp         cp   
2         0.00000000      2.45010000      0.00000000      0.00000000      2.45010000      0.00000000    117.94000000    117.94000000 #  hpan       cp        cp       hpan   
3         0.00000000      2.50140000      0.00000000      0.00000000      2.71470000      0.00000000    118.90000000    117.94000000 #  cp         cp        cp       hpan   
4         0.00000000      1.87290000      0.00000000      0.00000000      2.57060000      0.00000000    117.94000000    123.42000000 #  hpan       cp        cp         oc   
5         0.00000000     10.01550000      0.00000000      0.00000000      1.74040000      0.00000000    118.90000000    123.42000000 #  cp         cp        cp         oc   

AngleAngle Coeffs  # class2

1         0.00000000      0.00000000      0.00000000    118.90000000    117.94000000    117.94000000 #  cp         cp        cp       hpan     nb==3   
2         0.00000000      0.00000000      0.00000000    118.90000000    123.42000000    123.42000000 #  cp         cp        cp        oc      nb==3   

Atoms # full

 1  1  1    0.026500    1.144863636     0.000000000    -0.000009091      0    0    0 #  cp/C
 2  1  1   -0.126800    0.447463636     1.208000000    -0.000009091      0    0    0 #  cp/C
 3  1  1   -0.126800   -0.947436364     1.207900000     0.000090909      0    0    0 #  cp/C
 4  1  1    0.000000   -1.644836364     0.000000000     0.000090909      0    0    0 #  cp/C
 5  1  1   -0.126800   -0.947436364    -1.208000000    -0.000009091      0    0    0 #  cp/C
 6  1  1   -0.126800    0.447463636    -1.207900000    -0.000009091      0    0    0 #  cp/C
 7  1  3   -0.026500    2.499863636     0.000000000    -0.000009091      0    0    0 #  oc/O
 8  1  2    0.126800    0.997463636     2.160600000    -0.000109091      0    0    0 #  hpan/H
 9  1  2    0.126800   -1.497436364     2.160600000     0.000090909      0    0    0 #  hpan/H
10  1  2    0.126800   -1.497436364    -2.160600000    -0.000109091      0    0    0 #  hpan/H
11  1  2    0.126800    0.997463636    -2.160600000    -0.000009091      0    0    0 #  hpan/H

Bonds

  1   1     1     2  
  2   1     1     6  
  3   3     1     7  
  4   1     2     3  
  5   2     2     8  
  6   1     3     4  
  7   2     3     9  
  8   1     4     5  
  9   1     5     6  
 10   2     5    10  
 11   2     6    11  

Angles

  1   3     2     1     7  
  2   1     2     1     6  
  3   3     6     1     7  
  4   1     1     2     3  
  5   2     3     2     8  
  6   2     1     2     8  
  7   2     2     3     9  
  8   1     2     3     4  
  9   2     4     3     9  
 10   1     3     4     5  
 11   2     6     5    10  
 12   2     4     5    10  
 13   1     4     5     6  
 14   2     5     6    11  
 15   1     1     6     5  
 16   2     1     6    11  

Dihedrals

  1   3     6     1     2     8  
  2   4     8     2     1     7  
  3   4    11     6     1     7  
  4   1     2     1     6     5  
  5   3     2     1     6    11  
  6   1     3     2     1     6  
  7   1     1     2     3     4  
  8   3     1     2     3     9  
  9   2     8     2     3     9  
 10   5     3     2     1     7  
 11   1     2     3     4     5  
 12   3     4     3     2     8  
 13   1     3     4     5     6  
 14   3     5     4     3     9  
 15   3     3     4     5    10  
 16   2    10     5     6    11  
 17   3     4     5     6    11  
 18   5     5     6     1     7  
 19   1     1     6     5     4  
 20   3     1     6     5    10  

Impropers

  1   2     2     1     6     7  
  2   1     1     2     3     8  
  3   1     2     3     4     9  
  4   1     4     5     6    10  
  5   1     1     6     5    11  
