LAMMPS data and nta file via ensemble.ens2lmp(); Old names:	 C:\Users\trist\OneDrive\Desktop\Research\SMP10\Chemdraw\dimethylsilane.mol > all2lmp: v1.21 / 13 November 2024  Class: 2

29 atoms
27 bonds
48 angles
64 dihedrals
30 impropers

6 atom types
10 bond types
17 angle types
16 dihedral types
12 improper types

-13.233250000 13.507950000 xlo xhi
-11.243150000 11.363850000 ylo yhi
-11.210178571 11.210821429 zlo zhi

Atom Type Labels

 1  c2
 2  c3
 3  c=
 4  c=2
 5  h 
 6  si

Bond Type Labels

 1  c2-c=2
 2  c2-h
 3  c2-si
 4  c3-h
 5  c3-si
 6  c=-c=2
 7  c=-h
 8  c=2-h
 9  h-h
10  h-si

Angle Type Labels

 1  c2-c=2-c=
 2  c2-c=2-h
 3  c2-si-c2
 4  c2-si-c3
 5  c2-si-h
 6  c3-si-h
 7  c=-c=2-h
 8  c=2-c2-h
 9  c=2-c2-si
10  c=2-c=-h
11  h-c2-h
12  h-c2-si
13  h-c3-h
14  h-c3-si
15  h-c=-h
16  h-si-h
17  si-c2-si

Dihedral Type Labels

 1  h-c2-c=2-h
 2  c=2-c2-si-h
 3  h-c2-si-h
 4  h-c3-si-h
 5  h-c=-c=2-h
 6  h-c2-c=2-c=
 7  h-c=2-c2-si
 8  c=-c=2-c2-si
 9  h-c=-c=2-c2
10  c=2-c2-si-c2
11  h-c2-si-c3
12  h-c2-si-c2
13  si-c2-si-h
14  si-c2-si-c2
15  si-c2-si-c3
16  h-c3-si-c2

Improper Type Labels

 1  c2-c=2-c=-h-nb==3
 2  c=2-c=-h-h-nb==3
 3  c2-si-c2-h-nb!=3
 4  c2-si-c3-h-nb!=3
 5  c2-si-h-h-nb!=3
 6  c3-si-h-h-nb!=3
 7  c=2-c2-h-h-nb!=3
 8  c=2-c2-h-si-nb!=3
 9  h-c2-h-si-nb!=3
10  h-c2-si-si-nb!=3
11  h-c3-h-h-nb!=3
12  h-c3-h-si-nb!=3

Masses

1   12.01115000  #  c2   
2   12.01115000  #  c3   
3   12.01115000  #  c=   
4   12.01115000  #  c=2  
5    1.00797000  #  h    
6   28.08600000  #  si   

Pair Coeffs  # lj/class2/coul/long

1         0.05400000      4.01000000 #  c2   
2         0.05400000      3.90000000 #  c3   
3         0.06400000      3.90000000 #  c=   
4         0.06400000      4.01000000 #  c=2  
5         0.03750000      2.30000000 #  h    
6         0.19000000      4.45000000 #  si   

Bond Coeffs  # class2

1         1.50600000    312.35170000   -582.18610000    339.89710000 #  c2         c=2   
2         1.10100000    345.00000000   -691.89000000    844.60000000 #  c2           h   
3         1.89950000    189.65360000   -279.42100000    307.51350000 #  c2          si   
4         1.10100000    345.00000000   -691.89000000    844.60000000 #  c3           h   
5         1.89950000    189.65360000   -279.42100000    307.51350000 #  c3          si   
6         1.35210000    545.26630000  -1005.63300000   1225.74150000 #  c=         c=2   
7         1.08830000    365.76790000   -725.54040000    781.66210000 #  c=           h   
8         1.08830000    365.76790000   -725.54040000    781.66210000 #  c=2          h   
9         0.74140000    414.00000000      0.00000000      0.00000000 #  h            h   
10        1.47830000    202.77980000   -305.36030000    280.26850000 #  h           si   

Angle Coeffs  # class2

1       126.26000000     43.82500000    -27.72660000      1.00560000 #  c2        c=2         c=   
2       117.27000000     30.09440000     -8.08260000     -8.67810000 #  c2        c=2          h   
3       113.18550000     36.20690000    -20.39390000     20.01720000 #  c2         si         c2   
4       113.18550000     36.20690000    -20.39390000     20.01720000 #  c2         si         c3   
5       112.09770000     36.48320000    -12.80940000      0.00000000 #  c2         si          h   
6       112.09770000     36.48320000    -12.80940000      0.00000000 #  c3         si          h   
7       124.88000000     35.27660000    -17.77400000     -1.62150000 #  c=        c=2          h   
8       110.06000000     41.27840000    -14.29630000      5.22290000 #  c=2        c2          h   
9       112.30000000     34.60000000      0.00000000      0.00000000 #  c=2        c2         si   
10      124.88000000     35.27660000    -17.77400000     -1.62150000 #  c=2        c=          h   
11      107.66000000     39.64100000    -12.92100000     -2.43180000 #  h          c2          h   
12      112.03550000     28.77210000    -13.95230000      0.00000000 #  h          c2         si   
13      107.66000000     39.64100000    -12.92100000     -2.43180000 #  h          c3          h   
14      112.03550000     28.77210000    -13.95230000      0.00000000 #  h          c3         si   
15      115.49000000     29.63630000    -12.48530000     -6.22180000 #  h          c=          h   
16      108.60510000     32.54150000     -8.31640000      0.00000000 #  h          si          h   
17      112.30000000     34.60000000      0.00000000      0.00000000 #  si         c2         si   

Dihedral Coeffs  # class2

1        -0.11430000      0.00000000      0.00000000      0.00000000     -0.13490000      0.00000000 #  h          c2       c=2          h   
2         0.00000000      0.00000000      0.00000000      0.00000000      0.11110000      0.00000000 #  c=2        c2        si          h   
3         0.00000000      0.00000000      0.00000000      0.00000000     -0.06570000      0.00000000 #  h          c2        si          h   
4         0.00000000      0.00000000      0.00000000      0.00000000     -0.06570000      0.00000000 #  h          c3        si          h   
5         0.00000000      0.00000000      4.89740000      0.00000000      0.00000000      0.00000000 #  h          c=       c=2          h   
6         0.11430000      0.00000000      0.00000000      0.00000000      0.18540000      0.00000000 #  h          c2       c=2         c=   
7         0.00000000      0.00000000      0.00000000      0.00000000      0.21100000      0.00000000 #  h         c=2        c2         si   
8         0.00000000      0.00000000      0.00000000      0.00000000      0.21100000      0.00000000 #  c=        c=2        c2         si   
9         0.00000000      0.00000000      5.20970000      0.00000000      0.00000000      0.00000000 #  h          c=       c=2         c2   
10        0.00000000      0.00000000      0.00000000      0.00000000      0.11110000      0.00000000 #  c=2        c2        si         c2   
11        0.00000000      0.00000000      0.00000000      0.00000000     -0.06570000      0.00000000 #  h          c2        si         c3   
12        0.00000000      0.00000000      0.00000000      0.00000000     -0.06570000      0.00000000 #  h          c2        si         c2   
13        0.00000000      0.00000000      0.00000000      0.00000000      0.11110000      0.00000000 #  si         c2        si          h   
14        0.00000000      0.00000000      0.00000000      0.00000000      0.11110000      0.00000000 #  si         c2        si         c2   
15        0.00000000      0.00000000      0.00000000      0.00000000      0.11110000      0.00000000 #  si         c2        si         c3   
16        0.00000000      0.00000000      0.00000000      0.00000000     -0.06570000      0.00000000 #  h          c3        si         c2   

Improper Coeffs  # class2

1         2.07650000      0.00000000 #  c2        c=2        c=        h       nb==3   
2         2.85610000      0.00000000 #  c=2        c=        h         h       nb==3   
3         0.00000000      0.00000000 #  c2         si        c2        h       nb!=3   
4         0.00000000      0.00000000 #  c2         si        c3        h       nb!=3   
5         0.00000000      0.00000000 #  c2         si        h         h       nb!=3   
6         0.00000000      0.00000000 #  c3         si        h         h       nb!=3   
7         0.00000000      0.00000000 #  c=2        c2        h         h       nb!=3   
8         0.00000000      0.00000000 #  c=2        c2        h         si      nb!=3   
9         0.00000000      0.00000000 #  h          c2        h         si      nb!=3   
10        0.00000000      0.00000000 #  h          c2        si        si      nb!=3   
11        0.00000000      0.00000000 #  h          c3        h         h       nb!=3   
12        0.00000000      0.00000000 #  h          c3        h         si      nb!=3   

BondBond Coeffs  # class2

1        17.79130000      1.50600000      1.35210000 #  c2        c=2         c=   
2         3.43940000      1.50600000      1.08830000 #  c2        c=2          h   
3         3.74190000      1.89950000      1.89950000 #  c2         si         c2   
4         3.74190000      1.89950000      1.89950000 #  c2         si         c3   
5         3.92640000      1.89950000      1.47830000 #  c2         si          h   
6         3.92640000      1.89950000      1.47830000 #  c3         si          h   
7        10.10470000      1.35210000      1.08830000 #  c=        c=2          h   
8         9.99220000      1.50600000      1.10100000 #  c=2        c2          h   
9         0.00000000      1.50600000      1.89950000 #  c=2        c2         si   
10       10.10470000      1.35210000      1.08830000 #  c=2        c=          h   
11        5.33160000      1.10100000      1.10100000 #  h          c2          h   
12        1.65610000      1.10100000      1.89950000 #  h          c2         si   
13        5.33160000      1.10100000      1.10100000 #  h          c3          h   
14        1.65610000      1.10100000      1.89950000 #  h          c3         si   
15        4.85060000      1.08830000      1.08830000 #  h          c=          h   
16        4.64080000      1.47830000      1.47830000 #  h          si          h   
17        0.00000000      1.89950000      1.89950000 #  si         c2         si   

BondAngle Coeffs  # class2

1        31.58850000     24.22520000      1.50600000      1.35210000 #  c2        c=2         c=   
2        17.64520000     15.34920000      1.50600000      1.08830000 #  c2        c=2          h   
3        18.58050000     18.58050000      1.89950000      1.89950000 #  c2         si         c2   
4        18.58050000     18.58050000      1.89950000      1.89950000 #  c2         si         c3   
5        13.39610000      7.41040000      1.89950000      1.47830000 #  c2         si          h   
6        13.39610000      7.41040000      1.89950000      1.47830000 #  c3         si          h   
7        23.35880000     19.05920000      1.35210000      1.08830000 #  c=        c=2          h   
8        20.87670000     14.27410000      1.50600000      1.10100000 #  c=2        c2          h   
9         0.00000000      0.00000000      1.50600000      1.89950000 #  c=2        c2         si   
10       23.35880000     19.05920000      1.35210000      1.08830000 #  c=2        c=          h   
11       18.10300000     18.10300000      1.10100000      1.10100000 #  h          c2          h   
12       16.69080000     18.27640000      1.10100000      1.89950000 #  h          c2         si   
13       18.10300000     18.10300000      1.10100000      1.10100000 #  h          c3          h   
14       16.69080000     18.27640000      1.10100000      1.89950000 #  h          c3         si   
15       17.97950000     17.97950000      1.08830000      1.08830000 #  h          c=          h   
16        9.34670000      9.34670000      1.47830000      1.47830000 #  h          si          h   
17        0.00000000      0.00000000      1.89950000      1.89950000 #  si         c2         si   

AngleAngleTorsion Coeffs  # class2

1       -10.95120000    110.06000000    117.27000000 #  h          c2       c=2          h   
2         0.00000000    112.30000000    112.09770000 #  c=2        c2        si          h   
3       -12.93410000    112.03550000    112.09770000 #  h          c2        si          h   
4       -12.93410000    112.03550000    112.09770000 #  h          c3        si          h   
5        -7.00580000    124.88000000    124.88000000 #  h          c=       c=2          h   
6       -13.68260000    110.06000000    126.26000000 #  h          c2       c=2         c=   
7         0.00000000    117.27000000    112.30000000 #  h         c=2        c2         si   
8         0.00000000    126.26000000    112.30000000 #  c=        c=2        c2         si   
9        -7.69120000    124.88000000    126.26000000 #  h          c=       c=2         c2   
10        0.00000000    112.30000000    113.18550000 #  c=2        c2        si         c2   
11      -17.58020000    112.03550000    113.18550000 #  h          c2        si         c3   
12      -17.58020000    112.03550000    113.18550000 #  h          c2        si         c2   
13        0.00000000    112.30000000    112.09770000 #  si         c2        si          h   
14        0.00000000    112.30000000    113.18550000 #  si         c2        si         c2   
15        0.00000000    112.30000000    113.18550000 #  si         c2        si         c3   
16      -17.58020000    112.03550000    113.18550000 #  h          c3        si         c2   

EndBondTorsion Coeffs  # class2

1         0.22120000      0.00000000      0.09150000      0.59340000      0.00000000      0.04240000      1.10100000      1.08830000 #  h          c2       c=2          h   
2         0.00000000      0.00000000      0.00000000      0.00000000      0.00000000      0.00000000      1.50600000      1.47830000 #  c=2        c2        si          h   
3         0.00000000      0.00000000      0.00000000      0.00000000      0.00000000      0.00000000      1.10100000      1.47830000 #  h          c2        si          h   
4         0.00000000      0.00000000      0.00000000      0.00000000      0.00000000      0.00000000      1.10100000      1.47830000 #  h          c3        si          h   
5         0.71290000      0.51610000      0.00000000      0.71290000      0.51610000      0.00000000      1.08830000      1.08830000 #  h          c=       c=2          h   
6         1.97870000      0.00000000     -0.18050000      0.85660000      0.00000000      0.08110000      1.10100000      1.35210000 #  h          c2       c=2         c=   
7         0.00000000      0.00000000      0.00000000      0.00000000      0.00000000      0.00000000      1.08830000      1.89950000 #  h         c=2        c2         si   
8         0.00000000      0.00000000      0.00000000      0.00000000      0.00000000      0.00000000      1.35210000      1.89950000 #  c=        c=2        c2         si   
9         0.54060000     -0.16110000      0.00000000     -0.22010000      0.67700000      0.00000000      1.08830000      1.50600000 #  h          c=       c=2         c2   
10        0.00000000      0.00000000      0.00000000      0.00000000      0.00000000      0.00000000      1.50600000      1.89950000 #  c=2        c2        si         c2   
11        0.00000000      0.00000000      0.00000000      0.00000000      0.00000000      0.00000000      1.10100000      1.89950000 #  h          c2        si         c3   
12        0.00000000      0.00000000      0.00000000      0.00000000      0.00000000      0.00000000      1.10100000      1.89950000 #  h          c2        si         c2   
13        0.00000000      0.00000000      0.00000000      0.00000000      0.00000000      0.00000000      1.89950000      1.47830000 #  si         c2        si          h   
14        0.00000000      0.00000000      0.00000000      0.00000000      0.00000000      0.00000000      1.89950000      1.89950000 #  si         c2        si         c2   
15        0.00000000      0.00000000      0.00000000      0.00000000      0.00000000      0.00000000      1.89950000      1.89950000 #  si         c2        si         c3   
16        0.00000000      0.00000000      0.00000000      0.00000000      0.00000000      0.00000000      1.10100000      1.89950000 #  h          c3        si         c2   

MiddleBondTorsion Coeffs  # class2

1         1.87300000      0.00000000     -0.37020000      1.50600000 #  h          c2       c=2          h   
2         0.00000000      0.00000000      0.00000000      1.89950000 #  c=2        c2        si          h   
3         0.00000000      0.00000000     -0.59060000      1.89950000 #  h          c2        si          h   
4         0.00000000      0.00000000     -0.59060000      1.89950000 #  h          c3        si          h   
5         0.85580000      6.39110000      0.00000000      1.35210000 #  h          c=       c=2          h   
6        -1.57270000      0.00000000      0.65650000      1.50600000 #  h          c2       c=2         c=   
7         0.00000000      0.00000000      0.00000000      1.50600000 #  h         c=2        c2         si   
8         0.00000000      0.00000000      0.00000000      1.50600000 #  c=        c=2        c2         si   
9         1.12200000      6.06690000      0.00000000      1.35210000 #  h          c=       c=2         c2   
10        0.00000000      0.00000000      0.00000000      1.89950000 #  c=2        c2        si         c2   
11        0.00000000      0.00000000      0.00000000      1.89950000 #  h          c2        si         c3   
12        0.00000000      0.00000000      0.00000000      1.89950000 #  h          c2        si         c2   
13        0.00000000      0.00000000      0.00000000      1.89950000 #  si         c2        si          h   
14        0.00000000      0.00000000      0.00000000      1.89950000 #  si         c2        si         c2   
15        0.00000000      0.00000000      0.00000000      1.89950000 #  si         c2        si         c3   
16        0.00000000      0.00000000      0.00000000      1.89950000 #  h          c3        si         c2   

BondBond13 Coeffs  # class2

1         0.00000000      1.10100000      1.08830000 #  h          c2       c=2          h   
2         0.00000000      1.50600000      1.47830000 #  c=2        c2        si          h   
3         0.00000000      1.10100000      1.47830000 #  h          c2        si          h   
4         0.00000000      1.10100000      1.47830000 #  h          c3        si          h   
5         0.00000000      1.08830000      1.08830000 #  h          c=       c=2          h   
6         0.00000000      1.10100000      1.35210000 #  h          c2       c=2         c=   
7         0.00000000      1.08830000      1.89950000 #  h         c=2        c2         si   
8         0.00000000      1.35210000      1.89950000 #  c=        c=2        c2         si   
9         0.00000000      1.08830000      1.50600000 #  h          c=       c=2         c2   
10        0.00000000      1.50600000      1.89950000 #  c=2        c2        si         c2   
11        0.00000000      1.10100000      1.89950000 #  h          c2        si         c3   
12        0.00000000      1.10100000      1.89950000 #  h          c2        si         c2   
13        0.00000000      1.89950000      1.47830000 #  si         c2        si          h   
14        0.00000000      1.89950000      1.89950000 #  si         c2        si         c2   
15        0.00000000      1.89950000      1.89950000 #  si         c2        si         c3   
16        0.00000000      1.10100000      1.89950000 #  h          c3        si         c2   

AngleTorsion Coeffs  # class2

1         1.90610000      0.00000000      0.00000000     -0.06770000      0.00000000      0.00000000    110.06000000    117.27000000 #  h          c2       c=2          h   
2         0.00000000      0.00000000      0.00000000      0.00000000      0.00000000      0.00000000    112.30000000    112.09770000 #  c=2        c2        si          h   
3         0.00000000      0.00000000      0.00000000      0.00000000      0.00000000     -0.14230000    112.03550000    112.09770000 #  h          c2        si          h   
4         0.00000000      0.00000000      0.00000000      0.00000000      0.00000000     -0.14230000    112.03550000    112.09770000 #  h          c3        si          h   
5        -1.89110000      3.25400000      0.00000000     -1.89110000      3.25400000      0.00000000    124.88000000    124.88000000 #  h          c=       c=2          h   
6         1.59820000      0.00000000      0.00000000     -1.88730000      0.00000000      0.00000000    110.06000000    126.26000000 #  h          c2       c=2         c=   
7         0.00000000      0.00000000      0.00000000      0.00000000      0.00000000      0.00000000    117.27000000    112.30000000 #  h         c=2        c2         si   
8         0.00000000      0.00000000      0.00000000      0.00000000      0.00000000      0.00000000    126.26000000    112.30000000 #  c=        c=2        c2         si   
9        -1.51760000      3.71120000      0.00000000     -5.40820000      1.47310000      0.00000000    124.88000000    126.26000000 #  h          c=       c=2         c2   
10        0.00000000      0.00000000      0.00000000      0.00000000      0.00000000      0.00000000    112.30000000    113.18550000 #  c=2        c2        si         c2   
11        0.00000000      0.00000000      0.33820000      0.00000000      0.00000000      0.42720000    112.03550000    113.18550000 #  h          c2        si         c3   
12        0.00000000      0.00000000      0.33820000      0.00000000      0.00000000      0.42720000    112.03550000    113.18550000 #  h          c2        si         c2   
13        0.00000000      0.00000000      0.00000000      0.00000000      0.00000000      0.00000000    112.30000000    112.09770000 #  si         c2        si          h   
14        0.00000000      0.00000000      0.00000000      0.00000000      0.00000000      0.00000000    112.30000000    113.18550000 #  si         c2        si         c2   
15        0.00000000      0.00000000      0.00000000      0.00000000      0.00000000      0.00000000    112.30000000    113.18550000 #  si         c2        si         c3   
16        0.00000000      0.00000000      0.33820000      0.00000000      0.00000000      0.42720000    112.03550000    113.18550000 #  h          c3        si         c2   

AngleAngle Coeffs  # class2

1         0.00000000      0.00000000      0.00000000    126.26000000    124.88000000    117.27000000 #  c2        c=2        c=        h       nb==3   
2         0.00000000      0.00000000      0.00000000    124.88000000    115.49000000    124.88000000 #  c=2        c=        h         h       nb==3   
3         3.38270000      3.38270000      2.79630000    113.18550000    112.09770000    112.09770000 #  c2         si        c2        h       nb!=3   
4         3.38270000      3.38270000      2.79630000    113.18550000    112.09770000    112.09770000 #  c2         si        c3        h       nb!=3   
5         4.45590000      4.68090000      4.45590000    112.09770000    112.09770000    108.60510000 #  c2         si        h         h       nb!=3   
6         4.45590000      4.68090000      4.45590000    112.09770000    112.09770000    108.60510000 #  c3         si        h         h       nb!=3   
7        -0.11410000     -8.24640000     -0.11410000    110.06000000    110.06000000    107.66000000 #  c=2        c2        h         h       nb!=3   
8         0.00000000      0.00000000      0.00000000    110.06000000    112.03550000    112.30000000 #  c=2        c2        h         si      nb!=3   
9         0.00000000      0.00000000      2.20500000    107.66000000    112.03550000    112.03550000 #  h          c2        h         si      nb!=3   
10        0.00000000      0.00000000      0.00000000    112.03550000    112.30000000    112.03550000 #  h          c2        si        si      nb!=3   
11       -0.31570000     -0.31570000     -0.31570000    107.66000000    107.66000000    107.66000000 #  h          c3        h         h       nb!=3   
12        0.00000000      0.00000000      2.20500000    107.66000000    112.03550000    112.03550000 #  h          c3        h         si      nb!=3   

Atoms # full

  1     0   6    0.522000    2.283250000     0.496450000     0.000121430      0    0    0 #  si/Si
  2     0   1   -0.376000    0.745850000    -0.590150000    -0.000178570      0    0    0 #  c2/C
  3     0   5    0.000000    3.507950000    -0.350350000    -0.000078570      0    0    0 #  h/H
  4     0   5   -0.126000    2.306250000     1.363250000     1.210821430      0    0    0 #  h/H
  5     0   5   -0.126000    2.306250000     1.363850000    -1.210178570      0    0    0 #  h/H
  6     0   6    0.522000   -0.801350000     0.473850000     0.000121430      0    0    0 #  si/Si
  7     0   5    0.053000    0.749550000    -1.242750000    -0.902678570      0    0    0 #  h/H
  8     0   5    0.053000    0.749550000    -1.243150000     0.902121430      0    0    0 #  h/H
  9     0   2   -0.294000   -2.341050000    -0.592850000    -0.000178570      0    0    0 #  c3/C
  10    0   5   -0.126000   -0.807450000     1.352650000     1.200121430      0    0    0 #  h/H
  11    0   5   -0.126000   -0.807450000     1.353150000    -1.199378570      0    0    0 #  h/H
  12    0   5    0.053000   -3.233250000     0.071650000     0.000021430      0    0    0 #  h/H
  13    0   5    0.053000   -2.329050000    -1.227550000    -0.913678570      0    0    0 #  h/H
  14    0   5    0.053000   -2.329050000    -1.228050000     0.913021430      0    0    0 #  h/H
  15    0   6    0.522000    5.682760000     1.750673330    -1.000173330      0    0    0 #  si/Si
  16    0   1   -0.376000    3.832860000     1.457373330    -0.999973330      0    0    0 #  c2/C
  17    0   1   -0.241000    6.071460000     3.591873330    -0.999773330      0    0    0 #  c2/C
  18    0   5   -0.126000    6.289060000     1.114473330    -2.199973330      0    0    0 #  h/H
  19    0   5   -0.126000    6.289460000     1.113873330     0.199026670      0    0    0 #  h/H
  20    0   5    0.000000    3.647860000     0.360473330    -1.000173330      0    0    0 #  h/H
  21    0   5    0.053000    3.402360000     1.923873330    -0.086373330      0    0    0 #  h/H
  22    0   5    0.053000    3.402060000     1.924273330    -1.913173330      0    0    0 #  h/H
  23    0   4   -0.126800    7.540360000     3.928073330    -0.999873330      0    0    0 #  c=2/C
  24    0   5    0.053000    5.599760000     4.048373330    -0.098473330      0    0    0 #  h/H
  25    0   5    0.053000    5.599360000     4.048973330    -1.900673330      0    0    0 #  h/H
  26    0   3   -0.253600    7.996060000     5.188873330    -1.000173330      0    0    0 #  c=/C
  27    0   5    0.126800    8.269560000     3.100473330    -0.999673330      0    0    0 #  h/H
  28    0   5    0.126800    9.075460000     5.405673330    -1.000173330      0    0    0 #  h/H
  29    0   5    0.126800    7.301560000     6.042673330    -1.000373330      0    0    0 #  h/H

Bonds

  1   3     2     1  
  2   10    4     1  
  3   10    5     1  
  4   3    16     1  
  5   3     2     6  
  6   2     2     7  
  7   2     2     8  
  8   9     3    20  
  9   5     9     6  
 10   10   10     6  
 11   10   11     6  
 12   4     9    12  
 13   4     9    13  
 14   4     9    14  
 15   3    16    15  
 16   3    17    15  
 17   10   18    15  
 18   10   19    15  
 19   2    16    21  
 20   2    16    22  
 21   1    17    23  
 22   2    17    24  
 23   2    17    25  
 24   6    26    23  
 25   8    23    27  
 26   7    26    28  
 27   7    26    29  

Angles

  1   16    4     1     5  
  2   5     2     1     5  
  3   5    16     1     4  
  4   5    16     1     5  
  5   5     2     1     4  
  6   3     2     1    16  
  7   12    8     2     1  
  8   12    7     2     1  
  9   12    8     2     6  
 10   11    7     2     8  
 11   17    1     2     6  
 12   12    7     2     6  
 13   5     2     6    11  
 14   6     9     6    11  
 15   5     2     6    10  
 16   16   10     6    11  
 17   6     9     6    10  
 18   4     2     6     9  
 19   14   12     9     6  
 20   13   12     9    13  
 21   14   14     9     6  
 22   13   13     9    14  
 23   14   13     9     6  
 24   13   12     9    14  
 25   3    16    15    17  
 26   5    17    15    18  
 27   16   18    15    19  
 28   5    16    15    19  
 29   5    16    15    18  
 30   5    17    15    19  
 31   12   22    16     1  
 32   12   21    16    15  
 33   17    1    16    15  
 34   12   21    16     1  
 35   11   21    16    22  
 36   12   22    16    15  
 37   9    23    17    15  
 38   8    23    17    24  
 39   12   25    17    15  
 40   12   24    17    15  
 41   11   24    17    25  
 42   8    23    17    25  
 43   1    17    23    26  
 44   7    26    23    27  
 45   2    17    23    27  
 46   15   28    26    29  
 47   10   23    26    29  
 48   10   23    26    28  

Dihedrals

  1   14   15    16     1     2  
  2   12   21    16     1     2  
  3   3     7     2     1     4  
  4   3    22    16     1     5  
  5   13   15    16     1     4  
  6   3    21    16     1     4  
  7   3     7     2     1     5  
  8   13    6     2     1     4  
  9   13   15    16     1     5  
 10   3    21    16     1     5  
 11   13    6     2     1     5  
 12   12   22    16     1     2  
 13   3     8     2     1     4  
 14   3    22    16     1     4  
 15   3     8     2     1     5  
 16   13    1     2     6    10  
 17   3     7     2     6    10  
 18   12    8     2     1    16  
 19   11    8     2     6     9  
 20   15    1     2     6     9  
 21   12    7     2     1    16  
 22   11    7     2     6     9  
 23   14    6     2     1    16  
 24   3     8     2     6    11  
 25   13    1     2     6    11  
 26   3     7     2     6    11  
 27   3     8     2     6    10  
 28   16   14     9     6     2  
 29   4    14     9     6    10  
 30   4    12     9     6    11  
 31   16   13     9     6     2  
 32   4    13     9     6    10  
 33   4    14     9     6    11  
 34   16   12     9     6     2  
 35   4    12     9     6    10  
 36   4    13     9     6    11  
 37   3    24    17    15    18  