LAMMPS data and nta file via ensemble.ens2lmp(); Old names:	 C:\Users\trist\OneDrive\Desktop\Research\SMP10\Chemdraw\dimethylsilane.mol > all2lmp: v1.21 / 13 November 2024  Class: 2

25 atoms
23 bonds
42 angles
54 dihedrals
28 impropers

4 atom types
6 bond types
10 angle types
8 dihedral types
8 improper types

-13.233250000 13.507950000 xlo xhi
-11.243150000 11.363850000 ylo yhi
-11.210178571 11.210821429 zlo zhi

Atom Type Labels

 1  c2
 2  c3
 3  h 
 4  si

Bond Type Labels

 1  c2-h
 2  c2-si
 3  c3-h
 4  c3-si
 5  h-h
 6  h-si

Angle Type Labels

 1  c2-si-c2
 2  c2-si-c3
 3  c2-si-h
 4  c3-si-h
 5  h-c2-h
 6  h-c2-si
 7  h-c3-h
 8  h-c3-si
 9  h-si-h
10  si-c2-si

Dihedral Type Labels

 1  h-c2-si-h
 2  h-c3-si-h
 3  h-c2-si-c3
 4  h-c2-si-c2
 5  si-c2-si-h
 6  si-c2-si-c2
 7  si-c2-si-c3
 8  h-c3-si-c2

Improper Type Labels

 1  c2-si-c2-h-nb!=3
 2  c2-si-c3-h-nb!=3
 3  c2-si-h-h-nb!=3
 4  c3-si-h-h-nb!=3
 5  h-c2-h-si-nb!=3
 6  h-c2-si-si-nb!=3
 7  h-c3-h-h-nb!=3
 8  h-c3-h-si-nb!=3

Masses

1   12.01115000  #  c2   
2   12.01115000  #  c3   
3    1.00797000  #  h    
4   28.08600000  #  si   

Pair Coeffs  # lj/class2/coul/long

1         0.05400000      4.01000000 #  c2   
2         0.05400000      3.90000000 #  c3   
3         0.03750000      2.30000000 #  h    
4         0.19000000      4.45000000 #  si   

Bond Coeffs  # class2

1         1.10100000    345.00000000   -691.89000000    844.60000000 #  c2           h   
2         1.89950000    189.65360000   -279.42100000    307.51350000 #  c2          si   
3         1.10100000    345.00000000   -691.89000000    844.60000000 #  c3           h   
4         1.89950000    189.65360000   -279.42100000    307.51350000 #  c3          si   
5         0.74140000    414.00000000      0.00000000      0.00000000 #  h            h   
6         1.47830000    202.77980000   -305.36030000    280.26850000 #  h           si   

Angle Coeffs  # class2

1       113.18550000     36.20690000    -20.39390000     20.01720000 #  c2         si         c2   
2       113.18550000     36.20690000    -20.39390000     20.01720000 #  c2         si         c3   
3       112.09770000     36.48320000    -12.80940000      0.00000000 #  c2         si          h   
4       112.09770000     36.48320000    -12.80940000      0.00000000 #  c3         si          h   
5       107.66000000     39.64100000    -12.92100000     -2.43180000 #  h          c2          h   
6       112.03550000     28.77210000    -13.95230000      0.00000000 #  h          c2         si   
7       107.66000000     39.64100000    -12.92100000     -2.43180000 #  h          c3          h   
8       112.03550000     28.77210000    -13.95230000      0.00000000 #  h          c3         si   
9       108.60510000     32.54150000     -8.31640000      0.00000000 #  h          si          h   
10      112.30000000     34.60000000      0.00000000      0.00000000 #  si         c2         si   

Dihedral Coeffs  # class2

1         0.00000000      0.00000000      0.00000000      0.00000000     -0.06570000      0.00000000 #  h          c2        si          h   
2         0.00000000      0.00000000      0.00000000      0.00000000     -0.06570000      0.00000000 #  h          c3        si          h   
3         0.00000000      0.00000000      0.00000000      0.00000000     -0.06570000      0.00000000 #  h          c2        si         c3   
4         0.00000000      0.00000000      0.00000000      0.00000000     -0.06570000      0.00000000 #  h          c2        si         c2   
5         0.00000000      0.00000000      0.00000000      0.00000000      0.11110000      0.00000000 #  si         c2        si          h   
6         0.00000000      0.00000000      0.00000000      0.00000000      0.11110000      0.00000000 #  si         c2        si         c2   
7         0.00000000      0.00000000      0.00000000      0.00000000      0.11110000      0.00000000 #  si         c2        si         c3   
8         0.00000000      0.00000000      0.00000000      0.00000000     -0.06570000      0.00000000 #  h          c3        si         c2   

Improper Coeffs  # class2

1         0.00000000      0.00000000 #  c2         si        c2        h       nb!=3   
2         0.00000000      0.00000000 #  c2         si        c3        h       nb!=3   
3         0.00000000      0.00000000 #  c2         si        h         h       nb!=3   
4         0.00000000      0.00000000 #  c3         si        h         h       nb!=3   
5         0.00000000      0.00000000 #  h          c2        h         si      nb!=3   
6         0.00000000      0.00000000 #  h          c2        si        si      nb!=3   
7         0.00000000      0.00000000 #  h          c3        h         h       nb!=3   
8         0.00000000      0.00000000 #  h          c3        h         si      nb!=3   

BondBond Coeffs  # class2

1         3.74190000      1.89950000      1.89950000 #  c2         si         c2   
2         3.74190000      1.89950000      1.89950000 #  c2         si         c3   
3         3.92640000      1.89950000      1.47830000 #  c2         si          h   
4         3.92640000      1.89950000      1.47830000 #  c3         si          h   
5         5.33160000      1.10100000      1.10100000 #  h          c2          h   
6         1.65610000      1.10100000      1.89950000 #  h          c2         si   
7         5.33160000      1.10100000      1.10100000 #  h          c3          h   
8         1.65610000      1.10100000      1.89950000 #  h          c3         si   
9         4.64080000      1.47830000      1.47830000 #  h          si          h   
10        0.00000000      1.89950000      1.89950000 #  si         c2         si   

BondAngle Coeffs  # class2

1        18.58050000     18.58050000      1.89950000      1.89950000 #  c2         si         c2   
2        18.58050000     18.58050000      1.89950000      1.89950000 #  c2         si         c3   
3        13.39610000      7.41040000      1.89950000      1.47830000 #  c2         si          h   
4        13.39610000      7.41040000      1.89950000      1.47830000 #  c3         si          h   
5        18.10300000     18.10300000      1.10100000      1.10100000 #  h          c2          h   
6        16.69080000     18.27640000      1.10100000      1.89950000 #  h          c2         si   
7        18.10300000     18.10300000      1.10100000      1.10100000 #  h          c3          h   
8        16.69080000     18.27640000      1.10100000      1.89950000 #  h          c3         si   
9         9.34670000      9.34670000      1.47830000      1.47830000 #  h          si          h   
10        0.00000000      0.00000000      1.89950000      1.89950000 #  si         c2         si   

AngleAngleTorsion Coeffs  # class2

1       -12.93410000    112.03550000    112.09770000 #  h          c2        si          h   
2       -12.93410000    112.03550000    112.09770000 #  h          c3        si          h   
3       -17.58020000    112.03550000    113.18550000 #  h          c2        si         c3   
4       -17.58020000    112.03550000    113.18550000 #  h          c2        si         c2   
5         0.00000000    112.30000000    112.09770000 #  si         c2        si          h   
6         0.00000000    112.30000000    113.18550000 #  si         c2        si         c2   
7         0.00000000    112.30000000    113.18550000 #  si         c2        si         c3   
8       -17.58020000    112.03550000    113.18550000 #  h          c3        si         c2   

EndBondTorsion Coeffs  # class2

1         0.00000000      0.00000000      0.00000000      0.00000000      0.00000000      0.00000000      1.10100000      1.47830000 #  h          c2        si          h   
2         0.00000000      0.00000000      0.00000000      0.00000000      0.00000000      0.00000000      1.10100000      1.47830000 #  h          c3        si          h   
3         0.00000000      0.00000000      0.00000000      0.00000000      0.00000000      0.00000000      1.10100000      1.89950000 #  h          c2        si         c3   
4         0.00000000      0.00000000      0.00000000      0.00000000      0.00000000      0.00000000      1.10100000      1.89950000 #  h          c2        si         c2   
5         0.00000000      0.00000000      0.00000000      0.00000000      0.00000000      0.00000000      1.89950000      1.47830000 #  si         c2        si          h   
6         0.00000000      0.00000000      0.00000000      0.00000000      0.00000000      0.00000000      1.89950000      1.89950000 #  si         c2        si         c2   
7         0.00000000      0.00000000      0.00000000      0.00000000      0.00000000      0.00000000      1.89950000      1.89950000 #  si         c2        si         c3   
8         0.00000000      0.00000000      0.00000000      0.00000000      0.00000000      0.00000000      1.10100000      1.89950000 #  h          c3        si         c2   

MiddleBondTorsion Coeffs  # class2

1         0.00000000      0.00000000     -0.59060000      1.89950000 #  h          c2        si          h   
2         0.00000000      0.00000000     -0.59060000      1.89950000 #  h          c3        si          h   
3         0.00000000      0.00000000      0.00000000      1.89950000 #  h          c2        si         c3   
4         0.00000000      0.00000000      0.00000000      1.89950000 #  h          c2        si         c2   
5         0.00000000      0.00000000      0.00000000      1.89950000 #  si         c2        si          h   
6         0.00000000      0.00000000      0.00000000      1.89950000 #  si         c2        si         c2   
7         0.00000000      0.00000000      0.00000000      1.89950000 #  si         c2        si         c3   
8         0.00000000      0.00000000      0.00000000      1.89950000 #  h          c3        si         c2   

BondBond13 Coeffs  # class2

1         0.00000000      1.10100000      1.47830000 #  h          c2        si          h   
2         0.00000000      1.10100000      1.47830000 #  h          c3        si          h   
3         0.00000000      1.10100000      1.89950000 #  h          c2        si         c3   
4         0.00000000      1.10100000      1.89950000 #  h          c2        si         c2   
5         0.00000000      1.89950000      1.47830000 #  si         c2        si          h   
6         0.00000000      1.89950000      1.89950000 #  si         c2        si         c2   
7         0.00000000      1.89950000      1.89950000 #  si         c2        si         c3   
8         0.00000000      1.10100000      1.89950000 #  h          c3        si         c2   

AngleTorsion Coeffs  # class2

1         0.00000000      0.00000000      0.00000000      0.00000000      0.00000000     -0.14230000    112.03550000    112.09770000 #  h          c2        si          h   
2         0.00000000      0.00000000      0.00000000      0.00000000      0.00000000     -0.14230000    112.03550000    112.09770000 #  h          c3        si          h   
3         0.00000000      0.00000000      0.33820000      0.00000000      0.00000000      0.42720000    112.03550000    113.18550000 #  h          c2        si         c3   
4         0.00000000      0.00000000      0.33820000      0.00000000      0.00000000      0.42720000    112.03550000    113.18550000 #  h          c2        si         c2   
5         0.00000000      0.00000000      0.00000000      0.00000000      0.00000000      0.00000000    112.30000000    112.09770000 #  si         c2        si          h   
6         0.00000000      0.00000000      0.00000000      0.00000000      0.00000000      0.00000000    112.30000000    113.18550000 #  si         c2        si         c2   
7         0.00000000      0.00000000      0.00000000      0.00000000      0.00000000      0.00000000    112.30000000    113.18550000 #  si         c2        si         c3   
8         0.00000000      0.00000000      0.33820000      0.00000000      0.00000000      0.42720000    112.03550000    113.18550000 #  h          c3        si         c2   

AngleAngle Coeffs  # class2

1         3.38270000      3.38270000      2.79630000    113.18550000    112.09770000    112.09770000 #  c2         si        c2        h       nb!=3   
2         3.38270000      3.38270000      2.79630000    113.18550000    112.09770000    112.09770000 #  c2         si        c3        h       nb!=3   
3         4.45590000      4.68090000      4.45590000    112.09770000    112.09770000    108.60510000 #  c2         si        h         h       nb!=3   
4         4.45590000      4.68090000      4.45590000    112.09770000    112.09770000    108.60510000 #  c3         si        h         h       nb!=3   
5         0.00000000      0.00000000      2.20500000    107.66000000    112.03550000    112.03550000 #  h          c2        h         si      nb!=3   
6         0.00000000      0.00000000      0.00000000    112.03550000    112.30000000    112.03550000 #  h          c2        si        si      nb!=3   
7        -0.31570000     -0.31570000     -0.31570000    107.66000000    107.66000000    107.66000000 #  h          c3        h         h       nb!=3   
8         0.00000000      0.00000000      2.20500000    107.66000000    112.03550000    112.03550000 #  h          c3        h         si      nb!=3   

Atoms # full

  1     0   4    0.522000    2.283250000     0.496450000     0.000121430      0    0    0 #  si/Si
  2     0   1   -0.376000    0.745850000    -0.590150000    -0.000178570      0    0    0 #  c2/C
  3     0   3    0.000000    3.507950000    -0.350350000    -0.000078570      0    0    0 #  h/H
  4     0   3   -0.126000    2.306250000     1.363250000     1.210821430      0    0    0 #  h/H
  5     0   3   -0.126000    2.306250000     1.363850000    -1.210178570      0    0    0 #  h/H
  6     0   4    0.522000   -0.801350000     0.473850000     0.000121430      0    0    0 #  si/Si
  7     0   3    0.053000    0.749550000    -1.242750000    -0.902678570      0    0    0 #  h/H
  8     0   3    0.053000    0.749550000    -1.243150000     0.902121430      0    0    0 #  h/H
  9     0   2   -0.294000   -2.341050000    -0.592850000    -0.000178570      0    0    0 #  c3/C
  10    0   3   -0.126000   -0.807450000     1.352650000     1.200121430      0    0    0 #  h/H
  11    0   3   -0.126000   -0.807450000     1.353150000    -1.199378570      0    0    0 #  h/H
  12    0   3    0.053000   -3.233250000     0.071650000     0.000021430      0    0    0 #  h/H
  13    0   3    0.053000   -2.329050000    -1.227550000    -0.913678570      0    0    0 #  h/H
  14    0   3    0.053000   -2.329050000    -1.228050000     0.913021430      0    0    0 #  h/H
  15    0   1   -0.376000    4.658950000    -0.592850000    -1.000178570      0    0    0 #  c2/C
  16    0   4    0.522000    6.198650000     0.473850000    -0.999878570      0    0    0 #  si/Si
  17    0   3    0.000000    3.766750000     0.071650000    -0.999978570      0    0    0 #  h/H
  18    0   3    0.053000    4.670950000    -1.227550000    -1.913678570      0    0    0 #  h/H
  19    0   3    0.053000    4.670950000    -1.228050000    -0.086978570      0    0    0 #  h/H
  20    0   1   -0.376000    7.745850000    -0.590150000    -1.000178570      0    0    0 #  c2/C
  21    0   3   -0.126000    6.192550000     1.352650000     0.200121430      0    0    0 #  h/H
  22    0   3   -0.126000    6.192550000     1.353150000    -2.199378570      0    0    0 #  h/H
  23    0   4    0.513000    9.283250000     0.496450000    -0.999878570      0    0    0 #  si/Si
  24    0   3    0.053000    7.749550000    -1.242750000    -1.902678570      0    0    0 #  h/H
  25    0   3    0.053000    7.749550000    -1.243150000    -0.097878570      0    0    0 #  h/H

Bonds

  1   2     2     1  
  2   6     4     1  
  3   6     5     1  
  4   2    15     1  
  5   2     2     6  
  6   1     2     7  
  7   1     2     8  
  8   5     3    17  
  9   4     9     6  
 10   6    10     6  
 11   6    11     6  
 12   3     9    12  
 13   3     9    13  
 14   3     9    14  
 15   2    15    16  
 16   1    15    18  
 17   1    15    19  
 18   2    20    16  
 19   6    21    16  
 20   6    22    16  
 21   2    20    23  
 22   1    20    24  
 23   1    20    25  

Angles

  1   3    15     1     5  
  2   1     2     1    15  
  3   9     4     1     5  
  4   3     2     1     5  
  5   3     2     1     4  
  6   3    15     1     4  
  7   6     8     2     1  
  8   6     7     2     1  
  9   6     8     2     6  
 10   5     7     2     8  
 11   10    1     2     6  
 12   6     7     2     6  
 13   3     2     6    11  
 14   4     9     6    11  
 15   3     2     6    10  
 16   9    10     6    11  
 17   4     9     6    10  
 18   2     2     6     9  
 19   8    12     9     6  
 20   7    12     9    13  
 21   8    14     9     6  
 22   7    13     9    14  
 23   8    13     9     6  
 24   7    12     9    14  
 25   5    18    15    19  
 26   6    19    15    16  
 27   10    1    15    16  
 28   6    19    15     1  
 29   6    18    15    16  
 30   6    18    15     1  
 31   3    15    16    21  
 32   3    20    16    22  
 33   9    21    16    22  
 34   1    15    16    20  
 35   3    20    16    21  
 36   3    15    16    22  
 37   6    24    20    23  
 38   5    24    20    25  
 39   6    24    20    16  
 40   10   16    20    23  
 41   6    25    20    23  
 42   6    25    20    16  

Dihedrals

  1   4    19    15     1     2  
  2   1     7     2     1     4  
  3   5    16    15     1     4  
  4   1    19    15     1     4  
  5   1     7     2     1     5  
  6   4    18    15     1     2  
  7   5     6     2     1     4  
  8   1    18    15     1     4  
  9   5    16    15     1     5  
 10   1    19    15     1     5  
 11   5     6     2     1     5  
 12   1     8     2     1     4  
 13   6    16    15     1     2  
 14   1    18    15     1     5  
 15   1     8     2     1     5  
 16   5     1     2     6    10  
 17   1     7     2     6    10  
 18   3     8     2     6     9  
 19   7     1     2     6     9  
 20   3     7     2     6     9  
 21   4     8     2     1    15  
 22   1     8     2     6    11  
 23   4     7     2     1    15  
 24   5     1     2     6    11  
 25   1     7     2     6    11  
 26   1     8     2     6    10  
 27   6     6     2     1    15  
 28   8    14     9     6     2  
 29   2    14     9     6    10  
 30   2    12     9     6    11  
 31   8    13     9     6     2  
 32   2    13     9     6    10  
 33   2    14     9     6    11  
 34   8    12     9     6     2  
 35   2    12     9     6    10  
 36   2    13     9     6    11  
 37   4    19    15    16    20  
 38   6     1    15    16    20  
 39   5     1    15    16    21  
 40   1    18    15    16    21  
 41   1    19    15    16    22  
 42   5     1    15    16    22  
 43   4    18    15    16    20  
 44   1    19    15    16    21  
 45   1    18    15    16    22  
 46   1    25    20    16    21  
 47   5    23    20    16    22  
 48   4    24    20    16    15  
 49   1    24    20    16    21  
 50   1    25    20    16    22  
 51   6    23    20    16    15  
 52   5    23    20    16    21  
 53   1    24    20    16    22  
 54   4    25    20    16    15  

Impropers

  1   1     2     1    15     5  
  2   1     2     1    15     4  
  3   3     2     1     4     5  
  4   3    15     1     4     5  
  5   5     7     2     8     1  
  6   5     7     2     8     6  
  7   6     8     2     1     6  
  8   6     7     2     1     6  
  9   2     2     6     9    10  
 10   3     2     6    10    11  
 11   4     9     6    10    11  
 12   2     2     6     9    11  
 13   8    12     9    13     6  
 14   8    13     9    14     6  
 15   7    12     9    13    14  
 16   8    12     9    14     6  
 17   5    18    15    19    16  
 18   6    19    15     1    16  
 19   5    18    15    19     1  
 20   6    18    15     1    16  
 21   3    20    16    21    22  
 22   1    15    16    20    21  
 23   3    15    16    21    22  
 24   1    15    16    20    22  
 25   5    24    20    25    23  
 26   6    25    20    16    23  
 27   6    24    20    16    23  
 28   5    24    20    25    16  
