LAMMPS data and nta file via ensemble.ens2lmp(); Old names:	 C:\Users\trist\OneDrive\Desktop\Research\SMP10\Chemdraw\dimethylsilane.mol > all2lmp: v1.21 / 13 November 2024  Class: 2

14 atoms
13 bonds
24 angles
27 dihedrals
16 impropers

4 atom types
5 bond types
9 angle types
6 dihedral types
8 improper types

-13.233250000 13.507950000 xlo xhi
-11.243150000 11.363850000 ylo yhi
-11.210178571 11.210821429 zlo zhi

Atom Type Labels

 1  c2
 2  c3
 3  h 
 4  si

Bond Type Labels

 1  c2-h
 2  c2-si
 3  c3-h
 4  c3-si
 5  h-si

Angle Type Labels

 1  c2-si-c3
 2  c2-si-h
 3  c3-si-h
 4  h-c2-h
 5  h-c2-si
 6  h-c3-h
 7  h-c3-si
 8  h-si-h
 9  si-c2-si

Dihedral Type Labels

 1  h-c2-si-h
 2  h-c3-si-h
 3  h-c2-si-c3
 4  si-c2-si-h
 5  si-c2-si-c3
 6  h-c3-si-c2

Improper Type Labels

 1  c2-si-c3-h-nb!=3
 2  c2-si-h-h-nb!=3
 3  c3-si-h-h-nb!=3
 4  h-c2-h-si-nb!=3
 5  h-c2-si-si-nb!=3
 6  h-c3-h-h-nb!=3
 7  h-c3-h-si-nb!=3
 8  h-si-h-h-nb!=3

Masses

1   12.01115000  #  c2   
2   12.01115000  #  c3   
3    1.00797000  #  h    
4   28.08600000  #  si   

Pair Coeffs  # lj/class2/coul/long

1         0.05400000      4.01000000 #  c2   
2         0.05400000      3.90000000 #  c3   
3         0.03750000      2.30000000 #  h    
4         0.19000000      4.45000000 #  si   

Bond Coeffs  # class2

1         1.10100000    345.00000000   -691.89000000    844.60000000 #  c2           h   
2         1.89950000    189.65360000   -279.42100000    307.51350000 #  c2          si   
3         1.10100000    345.00000000   -691.89000000    844.60000000 #  c3           h   
4         1.89950000    189.65360000   -279.42100000    307.51350000 #  c3          si   
5         1.47830000    202.77980000   -305.36030000    280.26850000 #  h           si   

Angle Coeffs  # class2

1       113.18550000     36.20690000    -20.39390000     20.01720000 #  c2         si         c3   
2       112.09770000     36.48320000    -12.80940000      0.00000000 #  c2         si          h   
3       112.09770000     36.48320000    -12.80940000      0.00000000 #  c3         si          h   
4       107.66000000     39.64100000    -12.92100000     -2.43180000 #  h          c2          h   
5       112.03550000     28.77210000    -13.95230000      0.00000000 #  h          c2         si   
6       107.66000000     39.64100000    -12.92100000     -2.43180000 #  h          c3          h   
7       112.03550000     28.77210000    -13.95230000      0.00000000 #  h          c3         si   
8       108.60510000     32.54150000     -8.31640000      0.00000000 #  h          si          h   
9       112.30000000     34.60000000      0.00000000      0.00000000 #  si         c2         si   

Dihedral Coeffs  # class2

1         0.00000000      0.00000000      0.00000000      0.00000000     -0.06570000      0.00000000 #  h          c2        si          h   
2         0.00000000      0.00000000      0.00000000      0.00000000     -0.06570000      0.00000000 #  h          c3        si          h   
3         0.00000000      0.00000000      0.00000000      0.00000000     -0.06570000      0.00000000 #  h          c2        si         c3   
4         0.00000000      0.00000000      0.00000000      0.00000000      0.11110000      0.00000000 #  si         c2        si          h   
5         0.00000000      0.00000000      0.00000000      0.00000000      0.11110000      0.00000000 #  si         c2        si         c3   
6         0.00000000      0.00000000      0.00000000      0.00000000     -0.06570000      0.00000000 #  h          c3        si         c2   

Improper Coeffs  # class2

1         0.00000000      0.00000000 #  c2         si        c3        h       nb!=3   
2         0.00000000      0.00000000 #  c2         si        h         h       nb!=3   
3         0.00000000      0.00000000 #  c3         si        h         h       nb!=3   
4         0.00000000      0.00000000 #  h          c2        h         si      nb!=3   
5         0.00000000      0.00000000 #  h          c2        si        si      nb!=3   
6         0.00000000      0.00000000 #  h          c3        h         h       nb!=3   
7         0.00000000      0.00000000 #  h          c3        h         si      nb!=3   
8         0.00000000      0.00000000 #  h          si        h         h       nb!=3   

BondBond Coeffs  # class2

1         3.74190000      1.89950000      1.89950000 #  c2         si         c3   
2         3.92640000      1.89950000      1.47830000 #  c2         si          h   
3         3.92640000      1.89950000      1.47830000 #  c3         si          h   
4         5.33160000      1.10100000      1.10100000 #  h          c2          h   
5         1.65610000      1.10100000      1.89950000 #  h          c2         si   
6         5.33160000      1.10100000      1.10100000 #  h          c3          h   
7         1.65610000      1.10100000      1.89950000 #  h          c3         si   
8         4.64080000      1.47830000      1.47830000 #  h          si          h   
9         0.00000000      1.89950000      1.89950000 #  si         c2         si   

BondAngle Coeffs  # class2

1        18.58050000     18.58050000      1.89950000      1.89950000 #  c2         si         c3   
2        13.39610000      7.41040000      1.89950000      1.47830000 #  c2         si          h   
3        13.39610000      7.41040000      1.89950000      1.47830000 #  c3         si          h   
4        18.10300000     18.10300000      1.10100000      1.10100000 #  h          c2          h   
5        16.69080000     18.27640000      1.10100000      1.89950000 #  h          c2         si   
6        18.10300000     18.10300000      1.10100000      1.10100000 #  h          c3          h   
7        16.69080000     18.27640000      1.10100000      1.89950000 #  h          c3         si   
8         9.34670000      9.34670000      1.47830000      1.47830000 #  h          si          h   
9         0.00000000      0.00000000      1.89950000      1.89950000 #  si         c2         si   

AngleAngleTorsion Coeffs  # class2

1       -12.93410000    112.03550000    112.09770000 #  h          c2        si          h   
2       -12.93410000    112.03550000    112.09770000 #  h          c3        si          h   
3       -17.58020000    112.03550000    113.18550000 #  h          c2        si         c3   
4         0.00000000    112.30000000    112.09770000 #  si         c2        si          h   
5         0.00000000    112.30000000    113.18550000 #  si         c2        si         c3   
6       -17.58020000    112.03550000    113.18550000 #  h          c3        si         c2   

EndBondTorsion Coeffs  # class2

1         0.00000000      0.00000000      0.00000000      0.00000000      0.00000000      0.00000000      1.10100000      1.47830000 #  h          c2        si          h   
2         0.00000000      0.00000000      0.00000000      0.00000000      0.00000000      0.00000000      1.10100000      1.47830000 #  h          c3        si          h   
3         0.00000000      0.00000000      0.00000000      0.00000000      0.00000000      0.00000000      1.10100000      1.89950000 #  h          c2        si         c3   
4         0.00000000      0.00000000      0.00000000      0.00000000      0.00000000      0.00000000      1.89950000      1.47830000 #  si         c2        si          h   
5         0.00000000      0.00000000      0.00000000      0.00000000      0.00000000      0.00000000      1.89950000      1.89950000 #  si         c2        si         c3   
6         0.00000000      0.00000000      0.00000000      0.00000000      0.00000000      0.00000000      1.10100000      1.89950000 #  h          c3        si         c2   

MiddleBondTorsion Coeffs  # class2

1         0.00000000      0.00000000     -0.59060000      1.89950000 #  h          c2        si          h   
2         0.00000000      0.00000000     -0.59060000      1.89950000 #  h          c3        si          h   
3         0.00000000      0.00000000      0.00000000      1.89950000 #  h          c2        si         c3   
4         0.00000000      0.00000000      0.00000000      1.89950000 #  si         c2        si          h   
5         0.00000000      0.00000000      0.00000000      1.89950000 #  si         c2        si         c3   
6         0.00000000      0.00000000      0.00000000      1.89950000 #  h          c3        si         c2   

BondBond13 Coeffs  # class2

1         0.00000000      1.10100000      1.47830000 #  h          c2        si          h   
2         0.00000000      1.10100000      1.47830000 #  h          c3        si          h   
3         0.00000000      1.10100000      1.89950000 #  h          c2        si         c3   
4         0.00000000      1.89950000      1.47830000 #  si         c2        si          h   
5         0.00000000      1.89950000      1.89950000 #  si         c2        si         c3   
6         0.00000000      1.10100000      1.89950000 #  h          c3        si         c2   

AngleTorsion Coeffs  # class2

1         0.00000000      0.00000000      0.00000000      0.00000000      0.00000000     -0.14230000    112.03550000    112.09770000 #  h          c2        si          h   
2         0.00000000      0.00000000      0.00000000      0.00000000      0.00000000     -0.14230000    112.03550000    112.09770000 #  h          c3        si          h   
3         0.00000000      0.00000000      0.33820000      0.00000000      0.00000000      0.42720000    112.03550000    113.18550000 #  h          c2        si         c3   
4         0.00000000      0.00000000      0.00000000      0.00000000      0.00000000      0.00000000    112.30000000    112.09770000 #  si         c2        si          h   
5         0.00000000      0.00000000      0.00000000      0.00000000      0.00000000      0.00000000    112.30000000    113.18550000 #  si         c2        si         c3   
6         0.00000000      0.00000000      0.33820000      0.00000000      0.00000000      0.42720000    112.03550000    113.18550000 #  h          c3        si         c2   

AngleAngle Coeffs  # class2

1         3.38270000      3.38270000      2.79630000    113.18550000    112.09770000    112.09770000 #  c2         si        c3        h       nb!=3   
2         4.45590000      4.68090000      4.45590000    112.09770000    112.09770000    108.60510000 #  c2         si        h         h       nb!=3   
3         4.45590000      4.68090000      4.45590000    112.09770000    112.09770000    108.60510000 #  c3         si        h         h       nb!=3   
4         0.00000000      0.00000000      2.20500000    107.66000000    112.03550000    112.03550000 #  h          c2        h         si      nb!=3   
5         0.00000000      0.00000000      0.00000000    112.03550000    112.30000000    112.03550000 #  h          c2        si        si      nb!=3   
6        -0.31570000     -0.31570000     -0.31570000    107.66000000    107.66000000    107.66000000 #  h          c3        h         h       nb!=3   
7         0.00000000      0.00000000      2.20500000    107.66000000    112.03550000    112.03550000 #  h          c3        h         si      nb!=3   
8         2.06650000      2.06650000      2.06650000    108.60510000    108.60510000    108.60510000 #  h          si        h         h       nb!=3   

Atoms # full

  1     0   2   -0.294000   -2.341050000    -0.592850000    -0.000178570      0    0    0 #  c3/C
  2     0   4    0.522000   -0.801350000     0.473850000     0.000121430      0    0    0 #  si/Si
  3     0   1   -0.376000    0.745850000    -0.590150000    -0.000178570      0    0    0 #  c2/C
  4     0   4    0.513000    2.283250000     0.496450000     0.000121430      0    0    0 #  si/Si
  5     0   3    0.053000   -3.233250000     0.071650000     0.000021430      0    0    0 #  h/H
  6     0   3    0.053000   -2.329050000    -1.227550000    -0.913678570      0    0    0 #  h/H
  7     0   3    0.053000   -2.329050000    -1.228050000     0.913021430      0    0    0 #  h/H
  8     0   3   -0.126000   -0.807450000     1.352650000     1.200121430      0    0    0 #  h/H
  9     0   3   -0.126000   -0.807450000     1.353150000    -1.199378570      0    0    0 #  h/H
  10    0   3    0.053000    0.749550000    -1.242750000    -0.902678570      0    0    0 #  h/H
  11    0   3    0.053000    0.749550000    -1.243150000     0.902121430      0    0    0 #  h/H
  12    0   3   -0.126000    3.507950000    -0.350350000    -0.000078570      0    0    0 #  h/H
  13    0   3   -0.126000    2.306250000     1.363250000     1.210821430      0    0    0 #  h/H
  14    0   3   -0.126000    2.306250000     1.363850000    -1.210178570      0    0    0 #  h/H

Bonds

  1   4     1     2  
  2   3     1     5  
  3   3     1     6  
  4   3     1     7  
  5   2     3     2  
  6   5     8     2  
  7   5     9     2  
  8   2     3     4  
  9   1     3    10  
 10   1     3    11  
 11   5    12     4  
 12   5    13     4  
 13   5    14     4  

Angles

  1   6     5     1     6  
  2   7     6     1     2  
  3   6     6     1     7  
  4   7     5     1     2  
  5   6     5     1     7  
  6   7     7     1     2  
  7   3     1     2     8  
  8   2     3     2     9  
  9   1     3     2     1  
 10   3     1     2     9  
 11   2     3     2     8  
 12   8     8     2     9  
 13   5    11     3     4  
 14   5    11     3     2  
 15   5    10     3     4  
 16   4    10     3    11  
 17   9     2     3     4  
 18   5    10     3     2  
 19   8    12     4    14  
 20   2     3     4    13  
 21   8    12     4    13  
 22   2     3     4    12  
 23   8    13     4    14  
 24   2     3     4    14  

Dihedrals

  1   2     6     1     2     8  
  2   2     7     1     2     9  
  3   2     7     1     2     8  
  4   2     5     1     2     9  
  5   2     6     1     2     9  
  6   2     5     1     2     8  
  7   6     6     1     2     3  
  8   5     4     3     2     1  
  9   3    10     3     2     1  
 10   1    10     3     2     8  
 11   6     5     1     2     3  
 12   1    11     3     2     9  
 13   6     7     1     2     3  
 14   3    11     3     2     1  
 15   1    11     3     2     8  
 16   1    10     3     2     9  
 17   4     2     3     4    12  
 18   1    11     3     4    12  
 19   1    10     3     4    12  
 20   4     2     3     4    14  
 21   1    11     3     4    14  
 22   4     4     3     2     9  
 23   1    10     3     4    14  
 24   1    11     3     4    13  
 25   4     2     3     4    13  
 26   4     4     3     2     8  
 27   1    10     3     4    13  

Impropers

  1   6     5     1     6     7  
  2   7     5     1     7     2  
  3   7     6     1     7     2  
  4   7     5     1     6     2  
  5   2     3     2     8     9  
  6   1     3     2     1     8  
  7   3     1     2     8     9  
  8   1     3     2     1     9  
  9   5    10     3     2     4  
 10   4    10     3    11     2  
 11   4    10     3    11     4  
 12   5    11     3     2     4  
 13   2     3     4    12    14  
 14   2     3     4    13    14  
 15   8    12     4    13    14  
 16   2     3     4    12    13  
