HEADER,  DPEI_pre_rxn.mol  read w/ mol2lmp > atom_typing v1.5 / 4 July 2023 w/PCFF-IFF atom-types > all2lmp: v1.8 / 4 July 2023  Class: 2

27 atoms
27 bonds
40 angles
54 dihedrals
13 impropers

7 atom types
7 bond types
8 angle types
11 dihedral types
4 improper types

-6.926181481 7.036218519 xlo xhi
-3.465133333 3.932466667 ylo yhi
-0.500237037 0.500162963 zlo zhi

Masses

1   12.01115000  #  c=2  
2   12.01115000  #  cp   
3    1.00797000  #  ho   
4    1.00797000  #  hpan 
5   15.99940000  #  o=   
6   15.99940000  #  oc   
7   15.99940000  #  oh   

Pair Coeffs  # lj/class2/coul/long

1         0.06400000      4.01000000 #  c=2  
2         0.06400000      4.01000000 #  cp   
3         0.01300000      1.09800000 #  ho   
4         0.02000000      2.30000000 #  hpan 
5         0.28000000      3.25000000 #  o=   
6         0.24000000      3.53500000 #  oc   
7         0.24000000      3.53500000 #  oh   

Bond Coeffs  # class2

1         1.50000000    322.80000000      0.00000000      0.00000000 #  c=2         cp   
2         1.16000000   1112.00000000      0.00000000      0.00000000 #  c=2         o=   
3         1.36800000    355.19880000      0.00000000      0.00000000 #  c=2         oh   
4         1.41700000    470.83610000   -627.61790000   1327.63450000 #  cp          cp   
5         1.09820000    372.82510000   -803.45260000    894.31730000 #  cp        hpan   
6         1.37680000    428.87980000   -738.23510000   1114.96550000 #  cp          oc   
7         0.96500000    532.50620000  -1282.90500000   2004.76580000 #  ho          oh   

Angle Coeffs  # class2

1       120.00000000     80.00000000      0.00000000      0.00000000 #  c=2        cp         cp   
2       109.00000000     58.50000000      0.00000000      0.00000000 #  c=2        oh         ho   
3       120.00000000     68.00000000      0.00000000      0.00000000 #  cp        c=2         o=   
4       120.00000000     68.00000000      0.00000000      0.00000000 #  cp        c=2         oh   
5       118.90000000     61.02260000    -34.99310000      0.00000000 #  cp         cp         cp   
6       117.94000000     35.15580000    -12.46820000      0.00000000 #  cp         cp       hpan   
7       123.42000000     73.67810000    -21.67870000      0.00000000 #  cp         cp         oc   
8       120.00000000     68.00000000      0.00000000      0.00000000 #  o=        c=2         oh   

Dihedral Coeffs  # class2

1         0.00000000      0.00000000      0.90000000      0.00000000      0.00000000      0.00000000 #  cp        c=2        oh         ho   
2         0.00000000      0.00000000      0.50000000      0.00000000      0.00000000      0.00000000 #  o=        c=2        cp         cp   
3         0.00000000      0.00000000      0.50000000      0.00000000      0.00000000      0.00000000 #  oh        c=2        cp         cp   
4         0.00000000      0.00000000      3.00000000      0.00000000      0.00000000      0.00000000 #  c=2        cp        cp         cp   
5         8.36670000      0.00000000      1.19320000      0.00000000      0.00000000      0.00000000 #  cp         cp        cp         cp   
6         0.00000000      0.00000000      3.96610000      0.00000000      0.00000000      0.00000000 #  cp         cp        cp       hpan   
7         0.00000000      0.00000000      3.00000000      0.00000000      0.00000000      0.00000000 #  c=2        cp        cp       hpan   
8         0.00000000      0.00000000      1.87690000      0.00000000      0.00000000      0.00000000 #  hpan       cp        cp       hpan   
9         0.00000000      0.00000000      4.84980000      0.00000000      0.00000000      0.00000000 #  cp         cp        cp         oc   
10        0.00000000      0.00000000      1.72340000      0.00000000      0.00000000      0.00000000 #  hpan       cp        cp         oc   
11        0.00000000      0.00000000      0.90000000      0.00000000      0.00000000      0.00000000 #  o=        c=2        oh         ho   

Improper Coeffs  # class2

1        10.00000000      0.00000000 #  c=2        cp        cp        cp      nb==3   
2         2.05680000      0.00000000 #  cp        c=2        o=        oh      nb==3   
3         4.89120000      0.00000000 #  cp         cp        cp       hpan     nb==3   
4        13.04210000      0.00000000 #  cp         cp        cp        oc      nb==3   

BondBond Coeffs  # class2

1         0.00000000      1.50000000      1.41700000 #  c=2        cp         cp   
2         0.00000000      1.36800000      0.96500000 #  c=2        oh         ho   
3         0.00000000      1.50000000      1.16000000 #  cp        c=2         o=   
4         0.00000000      1.50000000      1.36800000 #  cp        c=2         oh   
5        68.28560000      1.41700000      1.41700000 #  cp         cp         cp   
6         1.07950000      1.41700000      1.09820000 #  cp         cp       hpan   
7        48.47540000      1.41700000      1.37680000 #  cp         cp         oc   
8         0.00000000      1.16000000      1.36800000 #  o=        c=2         oh   

BondAngle Coeffs  # class2

1         0.00000000      0.00000000      1.50000000      1.41700000 #  c=2        cp         cp   
2         0.00000000      0.00000000      1.36800000      0.96500000 #  c=2        oh         ho   
3         0.00000000      0.00000000      1.50000000      1.16000000 #  cp        c=2         o=   
4         0.00000000      0.00000000      1.50000000      1.36800000 #  cp        c=2         oh   
5        28.87080000     28.87080000      1.41700000      1.41700000 #  cp         cp         cp   
6        20.00330000     24.21830000      1.41700000      1.09820000 #  cp         cp       hpan   
7        58.47900000    107.68060000      1.41700000      1.37680000 #  cp         cp         oc   
8         0.00000000      0.00000000      1.16000000      1.36800000 #  o=        c=2         oh   

AngleAngleTorsion Coeffs  # class2

1         0.00000000    120.00000000    109.00000000 #  cp        c=2        oh         ho   
2         0.00000000    120.00000000    120.00000000 #  o=        c=2        cp         cp   
3         0.00000000    120.00000000    120.00000000 #  oh        c=2        cp         cp   
4         0.00000000    120.00000000    118.90000000 #  c=2        cp        cp         cp   
5         0.00000000    118.90000000    118.90000000 #  cp         cp        cp         cp   
6        -4.81410000    118.90000000    117.94000000 #  cp         cp        cp       hpan   
7         0.00000000    120.00000000    117.94000000 #  c=2        cp        cp       hpan   
8         0.35980000    117.94000000    117.94000000 #  hpan       cp        cp       hpan   
9       -21.02470000    118.90000000    123.42000000 #  cp         cp        cp         oc   
10        4.22960000    117.94000000    123.42000000 #  hpan       cp        cp         oc   
11        0.00000000    120.00000000    109.00000000 #  o=        c=2        oh         ho   

EndBondTorsion Coeffs  # class2

1         0.00000000      0.00000000      0.00000000      0.00000000      0.00000000      0.00000000      1.50000000      0.96500000 #  cp        c=2        oh         ho   
2         0.00000000      0.00000000      0.00000000      0.00000000      0.00000000      0.00000000      1.16000000      1.41700000 #  o=        c=2        cp         cp   
3         0.00000000      0.00000000      0.00000000      0.00000000      0.00000000      0.00000000      1.36800000      1.41700000 #  oh        c=2        cp         cp   
4         0.00000000      0.00000000      0.00000000      0.00000000      0.00000000      0.00000000      1.50000000      1.41700000 #  c=2        cp        cp         cp   
5        -0.11850000      6.32040000      0.00000000     -0.11850000      6.32040000      0.00000000      1.41700000      1.41700000 #  cp         cp        cp         cp   
6         0.00000000     -6.89580000      0.00000000      0.00000000     -0.46690000      0.00000000      1.41700000      1.09820000 #  cp         cp        cp       hpan   
7         0.00000000      0.00000000      0.00000000      0.00000000      0.00000000      0.00000000      1.50000000      1.09820000 #  c=2        cp        cp       hpan   
8         0.00000000     -0.68900000      0.00000000      0.00000000     -0.68900000      0.00000000      1.09820000      1.09820000 #  hpan       cp        cp       hpan   
9         0.00000000      0.26550000      0.00000000      0.00000000      4.89050000      0.00000000      1.41700000      1.37680000 #  cp         cp        cp         oc   
10        0.00000000     -1.58670000      0.00000000      0.00000000      4.26410000      0.00000000      1.09820000      1.37680000 #  hpan       cp        cp         oc   
11        0.00000000      0.00000000      0.00000000      0.00000000      0.00000000      0.00000000      1.16000000      0.96500000 #  o=        c=2        oh         ho   

MiddleBondTorsion Coeffs  # class2

1         0.00000000      0.00000000      0.00000000      1.36800000 #  cp        c=2        oh         ho   
2         0.00000000      0.00000000      0.00000000      1.50000000 #  o=        c=2        cp         cp   
3         0.00000000      0.00000000      0.00000000      1.50000000 #  oh        c=2        cp         cp   
4         0.00000000      0.00000000      0.00000000      1.41700000 #  c=2        cp        cp         cp   
5        27.59890000     -2.31200000      0.00000000      1.41700000 #  cp         cp        cp         cp   
6         0.00000000     -1.15210000      0.00000000      1.41700000 #  cp         cp        cp       hpan   
7         0.00000000      0.00000000      0.00000000      1.41700000 #  c=2        cp        cp       hpan   
8         0.00000000      4.82280000      0.00000000      1.41700000 #  hpan       cp        cp       hpan   
9         0.00000000      4.82550000      0.00000000      1.41700000 #  cp         cp        cp         oc   
10        0.00000000      5.54320000      0.00000000      1.41700000 #  hpan       cp        cp         oc   
11        0.00000000      0.00000000      0.00000000      1.36800000 #  o=        c=2        oh         ho   

BondBond13 Coeffs  # class2

1         0.00000000      1.50000000      0.96500000 #  cp        c=2        oh         ho   
2         0.00000000      1.16000000      1.41700000 #  o=        c=2        cp         cp   
3         0.00000000      1.36800000      1.41700000 #  oh        c=2        cp         cp   
4         0.00000000      1.50000000      1.41700000 #  c=2        cp        cp         cp   
5        53.00000000      1.41700000      1.41700000 #  cp         cp        cp         cp   
6        -6.27410000      1.41700000      1.09820000 #  cp         cp        cp       hpan   
7         0.00000000      1.50000000      1.09820000 #  c=2        cp        cp       hpan   
8        -1.70770000      1.09820000      1.09820000 #  hpan       cp        cp       hpan   
9        -2.24360000      1.41700000      1.37680000 #  cp         cp        cp         oc   
10        2.05170000      1.09820000      1.37680000 #  hpan       cp        cp         oc   
11        0.00000000      1.16000000      0.96500000 #  o=        c=2        oh         ho   

AngleTorsion Coeffs  # class2

1         0.00000000      0.00000000      0.00000000      0.00000000      0.00000000      0.00000000    120.00000000    109.00000000 #  cp        c=2        oh         ho   
2         0.00000000      0.00000000      0.00000000      0.00000000      0.00000000      0.00000000    120.00000000    120.00000000 #  o=        c=2        cp         cp   
3         0.00000000      0.00000000      0.00000000      0.00000000      0.00000000      0.00000000    120.00000000    120.00000000 #  oh        c=2        cp         cp   
4         0.00000000      0.00000000      0.00000000      0.00000000      0.00000000      0.00000000    120.00000000    118.90000000 #  c=2        cp        cp         cp   
5         1.97670000      1.02390000      0.00000000      1.97670000      1.02390000      0.00000000    118.90000000    118.90000000 #  cp         cp        cp         cp   
6         0.00000000      2.50140000      0.00000000      0.00000000      2.71470000      0.00000000    118.90000000    117.94000000 #  cp         cp        cp       hpan   
7         0.00000000      0.00000000      0.00000000      0.00000000      0.00000000      0.00000000    120.00000000    117.94000000 #  c=2        cp        cp       hpan   
8         0.00000000      2.45010000      0.00000000      0.00000000      2.45010000      0.00000000    117.94000000    117.94000000 #  hpan       cp        cp       hpan   
9         0.00000000     10.01550000      0.00000000      0.00000000      1.74040000      0.00000000    118.90000000    123.42000000 #  cp         cp        cp         oc   
10        0.00000000      1.87290000      0.00000000      0.00000000      2.57060000      0.00000000    117.94000000    123.42000000 #  hpan       cp        cp         oc   
11        0.00000000      0.00000000      0.00000000      0.00000000      0.00000000      0.00000000    120.00000000    109.00000000 #  o=        c=2        oh         ho   

AngleAngle Coeffs  # class2

1         0.00000000      0.00000000      0.00000000    120.00000000    118.90000000    120.00000000 #  c=2        cp        cp        cp      nb==3   
2         0.00000000      0.00000000      0.00000000    120.00000000    120.00000000    120.00000000 #  cp        c=2        o=        oh      nb==3   
3         0.00000000      0.00000000      0.00000000    118.90000000    117.94000000    117.94000000 #  cp         cp        cp       hpan     nb==3   
4         0.00000000      0.00000000      0.00000000    118.90000000    123.42000000    123.42000000 #  cp         cp        cp        oc      nb==3   

Atoms # full

 1  1  1    0.000000   -6.426181481    -0.804533333     0.000062963      0    0    0 #  c=2/C
 2  1  2   -0.126800   -4.231781481     0.403366667     0.000062963      0    0    0 #  cp/C
 3  1  2    0.000000   -4.929181481    -0.804533333     0.000062963      0    0    0 #  cp/C
 4  1  2   -0.126800   -4.231781481    -2.012533333     0.000062963      0    0    0 #  cp/C
 5  1  2   -0.126800   -2.836981481    -2.012533333    -0.000037037      0    0    0 #  cp/C
 6  1  2   -0.126800   -2.139481481    -0.804633333    -0.000137037      0    0    0 #  cp/C
 7  1  2    0.000000   -2.836981481     0.403366667    -0.000037037      0    0    0 #  cp/C
 8  1  1    0.146500   -2.161481481     1.573366667    -0.000037037      0    0    0 #  c=2/C
 9  1  7   -0.450600   -2.830481481     2.732166667     0.000062963      0    0    0 #  oh/O
10  1  5   -0.120000   -0.953481481     1.573366667    -0.000137037      0    0    0 #  o=/O
11  1  4    0.126800   -4.781781481     1.355966667     0.000162963      0    0    0 #  hpan/H
12  1  4    0.126800   -4.781781481    -2.965133333     0.000162963      0    0    0 #  hpan/H
13  1  4    0.126800   -2.286981481    -2.965133333    -0.000037037      0    0    0 #  hpan/H
14  1  4    0.126800   -1.039481481    -0.804633333    -0.000237037      0    0    0 #  hpan/H
15  1  3    0.424100   -2.156481481     3.432466667    -0.000037037      0    0    0 #  ho/H
16  2  2   -0.126800    3.344018519     1.331166667     0.000062963      0    0    0 #  cp/C
17  2  2   -0.126800    2.646518519     0.123266667     0.000062963      0    0    0 #  cp/C
18  2  2   -0.126800    3.344018519    -1.084733333     0.000062963      0    0    0 #  cp/C
19  2  2   -0.126800    4.738818519    -1.084733333    -0.000037037      0    0    0 #  cp/C
20  2  2   -0.126800    5.436218519     0.123166667    -0.000137037      0    0    0 #  cp/C
21  2  2    0.026500    4.738818519     1.331166667    -0.000037037      0    0    0 #  cp/C
22  2  6   -0.026500    5.416318519     2.504666667    -0.000037037      0    0    0 #  oc/O
23  2  4    0.126800    2.794018519     2.283866667     0.000162963      0    0    0 #  hpan/H
24  2  4    0.126800    1.546518519     0.123266667     0.000062963      0    0    0 #  hpan/H
25  2  4    0.126800    2.794018519    -2.037333333     0.000162963      0    0    0 #  hpan/H
26  2  4    0.126800    5.288818519    -2.037333333    -0.000037037      0    0    0 #  hpan/H
27  2  4    0.126800    6.536218519     0.123166667    -0.000237037      0    0    0 #  hpan/H

Bonds

  1   1     1     3  
  2   4     2     3  
  3   4     2     7  
  4   5     2    11  
  5   4     3     4  
  6   4     4     5  
  7   5     4    12  
  8   4     5     6  
  9   5     5    13  
 10   4     6     7  
 11   5     6    14  
 12   1     8     7  
 13   3     8     9  
 14   2     8    10  
 15   7    15     9  
 16   4    16    17  
 17   4    16    21  
 18   5    16    23  
 19   4    17    18  
 20   5    17    24  
 21   4    18    19  
 22   5    18    25  
 23   4    19    20  
 24   5    19    26  
 25   4    20    21  
 26   5    20    27  
 27   6    21    22  

Angles

  1   5     3     2     7  
  2   6     7     2    11  
  3   6     3     2    11  
  4   1     1     3     2  
  5   1     1     3     4  
  6   5     2     3     4  
  7   6     3     4    12  
  8   6     5     4    12  
  9   5     3     4     5  
 10   5     4     5     6  
 11   6     6     5    13  
 12   6     4     5    13  
 13   6     5     6    14  
 14   5     5     6     7  
 15   6     7     6    14  
 16   1     8     7     6  
 17   5     2     7     6  
 18   1     8     7     2  
 19   3     7     8    10  
 20   4     7     8     9  
 21   8    10     8     9  
 22   2     8     9    15  
 23   6    21    16    23  
 24   6    17    16    23  
 25   5    17    16    21  
 26   5    16    17    18  
 27   6    16    17    24  
 28   6    18    17    24  
 29   5    17    18    19  
 30   6    17    18    25  
 31   6    19    18    25  
 32   5    18    19    20  
 33   6    18    19    26  
 34   6    20    19    26  
 35   5    19    20    21  
 36   6    19    20    27  
 37   6    21    20    27  
 38   7    20    21    22  
 39   5    16    21    20  
 40   7    16    21    22  

Dihedrals

  1   5     3     2     7     6  
  2   4     8     7     2     3  
  3   6     2     3     4    12  
  4   7     1     3     4    12  
  5   5     4     3     2     7  
  6   5     2     3     4     5  
  7   4     1     3     4     5  
  8   7     1     3     2    11  
  9   4     1     3     2     7  
 10   6     4     3     2    11  
 11   6     3     4     5    13  
 12   8    12     4     5    13  
 13   5     3     4     5     6  
 14   6     6     5     4    12  
 15   6     4     5     6    14  
 16   8    13     5     6    14  
 17   5     4     5     6     7  
 18   6     7     6     5    13  
 19   4     8     7     6     5  
 20   3     9     8     7     2  
 21   7     8     7     6    14  
 22   5     2     7     6     5  
 23   6     2     7     6    14  
 24   3     9     8     7     6  
 25   6     6     7     2    11  
 26   2    10     8     7     2  
 27   7     8     7     2    11  
 28   2    10     8     7     6  
 29   11   10     8     9    15  
 30   1     7     8     9    15  
 31   5    17    16    21    20  
 32   6    21    16    17    24  
 33   8    23    16    17    24  
 34   9    17    16    21    22  
 35   5    18    17    16    21  
 36   6    18    17    16    23  
 37   8    24    17    18    25  
 38   5    16    17    18    19  
 39   6    16    17    18    25  
 40   5    17    18    19    20  
 41   6    17    18    19    26  
 42   6    19    18    17    24  
 43   8    25    18    19    26  
 44   6    20    19    18    25  
 45   8    26    19    20    27  
 46   5    18    19    20    21  
 47   6    18    19    20    27  
 48   9    19    20    21    22  
 49   6    21    20    19    26  
 50   6    16    21    20    27  
 51   6    20    21    16    23  
 52   10   27    20    21    22  
 53   10   23    16    21    22  
 54   5    16    21    20    19  

Impropers

  1   3     3     2     7    11  
  2   1     1     3     2     4  
  3   3     3     4     5    12  
  4   3     4     5     6    13  
  5   3     5     6     7    14  
  6   1     8     7     2     6  
  7   2     7     8    10     9  
  8   3    17    16    21    23  
  9   3    16    17    18    24  
 10   3    17    18    19    25  
 11   3    18    19    20    26  
 12   3    19    20    21    27  
 13   4    16    21    20    22  
