HEADER,  DPEI_post_rxn.mol  read w/ mol2lmp > atom_typing v1.5 / 4 July 2023 w/PCFF-IFF atom-types > all2lmp: v1.8 / 4 July 2023  Class: 2

27 atoms
27 bonds
40 angles
56 dihedrals
13 impropers

7 atom types
6 bond types
7 angle types
9 dihedral types
4 improper types

-5.139718518 7.809481481 xlo xhi
-3.823559259 3.875440741 ylo yhi
-2.413529630 2.486470370 zlo zhi

Masses

1   12.01115000  #  c=2  
2   12.01115000  #  cp   
3    1.00797000  #  hpan 
4    1.00797000  #  hw   
5   15.99940000  #  o*   
6   15.99940000  #  o_1  
7   15.99940000  #  oc   

Pair Coeffs  # lj/class2/coul/long

1         0.06400000      4.01000000 #  c=2  
2         0.06400000      4.01000000 #  cp   
3         0.02000000      2.30000000 #  hpan 
4         0.01300000      1.09800000 #  hw   
5         0.26000000      3.61000000 #  o*   
6         0.26700000      3.30000000 #  o_1  
7         0.24000000      3.53500000 #  oc   

Bond Coeffs  # class2

1         1.50000000    322.80000000      0.00000000      0.00000000 #  c=2         cp   
2         1.35500000    312.91160000      0.00000000      0.00000000 #  c=2        o_1   
3         1.41700000    470.83610000   -627.61790000   1327.63450000 #  cp          cp   
4         1.09820000    372.82510000   -803.45260000    894.31730000 #  cp        hpan   
5         1.37680000    428.87980000   -738.23510000   1114.96550000 #  cp          oc   
6         0.97000000    563.28000000  -1428.22000000   1902.12000000 #  hw          o*   

Angle Coeffs  # class2

1       120.00000000     80.00000000      0.00000000      0.00000000 #  c=2        cp         cp   
2       120.00000000     36.20000000      0.00000000      0.00000000 #  cp        c=2         cp   
3       120.00000000     68.00000000      0.00000000      0.00000000 #  cp        c=2        o_1   
4       118.90000000     61.02260000    -34.99310000      0.00000000 #  cp         cp         cp   
5       117.94000000     35.15580000    -12.46820000      0.00000000 #  cp         cp       hpan   
6       123.42000000     73.67810000    -21.67870000      0.00000000 #  cp         cp         oc   
7       103.70000000     49.84000000    -11.60000000     -8.00000000 #  hw         o*         hw   

Dihedral Coeffs  # class2

1         0.00000000      0.00000000      0.50000000      0.00000000      0.00000000      0.00000000 #  cp        c=2        cp         cp   
2         0.00000000      0.00000000      0.50000000      0.00000000      0.00000000      0.00000000 #  o_1       c=2        cp         cp   
3         0.00000000      0.00000000      3.00000000      0.00000000      0.00000000      0.00000000 #  c=2        cp        cp         cp   
4         8.36670000      0.00000000      1.19320000      0.00000000      0.00000000      0.00000000 #  cp         cp        cp         cp   
5         0.00000000      0.00000000      3.96610000      0.00000000      0.00000000      0.00000000 #  cp         cp        cp       hpan   
6         0.00000000      0.00000000      3.00000000      0.00000000      0.00000000      0.00000000 #  c=2        cp        cp       hpan   
7         0.00000000      0.00000000      1.87690000      0.00000000      0.00000000      0.00000000 #  hpan       cp        cp       hpan   
8         0.00000000      0.00000000      4.84980000      0.00000000      0.00000000      0.00000000 #  cp         cp        cp         oc   
9         0.00000000      0.00000000      1.72340000      0.00000000      0.00000000      0.00000000 #  hpan       cp        cp         oc   

Improper Coeffs  # class2

1        10.00000000      0.00000000 #  c=2        cp        cp        cp      nb==3   
2         2.05680000      0.00000000 #  cp        c=2        cp       o_1      nb==3   
3         4.89120000      0.00000000 #  cp         cp        cp       hpan     nb==3   
4        13.04210000      0.00000000 #  cp         cp        cp        oc      nb==3   

BondBond Coeffs  # class2

1         0.00000000      1.50000000      1.41700000 #  c=2        cp         cp   
2         0.00000000      1.50000000      1.50000000 #  cp        c=2         cp   
3         0.00000000      1.50000000      1.35500000 #  cp        c=2        o_1   
4        68.28560000      1.41700000      1.41700000 #  cp         cp         cp   
5         1.07950000      1.41700000      1.09820000 #  cp         cp       hpan   
6        48.47540000      1.41700000      1.37680000 #  cp         cp         oc   
7        -9.50000000      0.97000000      0.97000000 #  hw         o*         hw   

BondAngle Coeffs  # class2

1         0.00000000      0.00000000      1.50000000      1.41700000 #  c=2        cp         cp   
2         0.00000000      0.00000000      1.50000000      1.50000000 #  cp        c=2         cp   
3         0.00000000      0.00000000      1.50000000      1.35500000 #  cp        c=2        o_1   
4        28.87080000     28.87080000      1.41700000      1.41700000 #  cp         cp         cp   
5        20.00330000     24.21830000      1.41700000      1.09820000 #  cp         cp       hpan   
6        58.47900000    107.68060000      1.41700000      1.37680000 #  cp         cp         oc   
7        22.35000000     22.35000000      0.97000000      0.97000000 #  hw         o*         hw   

AngleAngleTorsion Coeffs  # class2

1         0.00000000    120.00000000    120.00000000 #  cp        c=2        cp         cp   
2         0.00000000    120.00000000    120.00000000 #  o_1       c=2        cp         cp   
3         0.00000000    120.00000000    118.90000000 #  c=2        cp        cp         cp   
4         0.00000000    118.90000000    118.90000000 #  cp         cp        cp         cp   
5        -4.81410000    118.90000000    117.94000000 #  cp         cp        cp       hpan   
6         0.00000000    120.00000000    117.94000000 #  c=2        cp        cp       hpan   
7         0.35980000    117.94000000    117.94000000 #  hpan       cp        cp       hpan   
8       -21.02470000    118.90000000    123.42000000 #  cp         cp        cp         oc   
9         4.22960000    117.94000000    123.42000000 #  hpan       cp        cp         oc   

EndBondTorsion Coeffs  # class2

1         0.00000000      0.00000000      0.00000000      0.00000000      0.00000000      0.00000000      1.50000000      1.41700000 #  cp        c=2        cp         cp   
2         0.00000000      0.00000000      0.00000000      0.00000000      0.00000000      0.00000000      1.35500000      1.41700000 #  o_1       c=2        cp         cp   
3         0.00000000      0.00000000      0.00000000      0.00000000      0.00000000      0.00000000      1.50000000      1.41700000 #  c=2        cp        cp         cp   
4        -0.11850000      6.32040000      0.00000000     -0.11850000      6.32040000      0.00000000      1.41700000      1.41700000 #  cp         cp        cp         cp   
5         0.00000000     -6.89580000      0.00000000      0.00000000     -0.46690000      0.00000000      1.41700000      1.09820000 #  cp         cp        cp       hpan   
6         0.00000000      0.00000000      0.00000000      0.00000000      0.00000000      0.00000000      1.50000000      1.09820000 #  c=2        cp        cp       hpan   
7         0.00000000     -0.68900000      0.00000000      0.00000000     -0.68900000      0.00000000      1.09820000      1.09820000 #  hpan       cp        cp       hpan   
8         0.00000000      0.26550000      0.00000000      0.00000000      4.89050000      0.00000000      1.41700000      1.37680000 #  cp         cp        cp         oc   
9         0.00000000     -1.58670000      0.00000000      0.00000000      4.26410000      0.00000000      1.09820000      1.37680000 #  hpan       cp        cp         oc   

MiddleBondTorsion Coeffs  # class2

1         0.00000000      0.00000000      0.00000000      1.50000000 #  cp        c=2        cp         cp   
2         0.00000000      0.00000000      0.00000000      1.50000000 #  o_1       c=2        cp         cp   
3         0.00000000      0.00000000      0.00000000      1.41700000 #  c=2        cp        cp         cp   
4        27.59890000     -2.31200000      0.00000000      1.41700000 #  cp         cp        cp         cp   
5         0.00000000     -1.15210000      0.00000000      1.41700000 #  cp         cp        cp       hpan   
6         0.00000000      0.00000000      0.00000000      1.41700000 #  c=2        cp        cp       hpan   
7         0.00000000      4.82280000      0.00000000      1.41700000 #  hpan       cp        cp       hpan   
8         0.00000000      4.82550000      0.00000000      1.41700000 #  cp         cp        cp         oc   
9         0.00000000      5.54320000      0.00000000      1.41700000 #  hpan       cp        cp         oc   

BondBond13 Coeffs  # class2

1         0.00000000      1.50000000      1.41700000 #  cp        c=2        cp         cp   
2         0.00000000      1.35500000      1.41700000 #  o_1       c=2        cp         cp   
3         0.00000000      1.50000000      1.41700000 #  c=2        cp        cp         cp   
4        53.00000000      1.41700000      1.41700000 #  cp         cp        cp         cp   
5        -6.27410000      1.41700000      1.09820000 #  cp         cp        cp       hpan   
6         0.00000000      1.50000000      1.09820000 #  c=2        cp        cp       hpan   
7        -1.70770000      1.09820000      1.09820000 #  hpan       cp        cp       hpan   
8        -2.24360000      1.41700000      1.37680000 #  cp         cp        cp         oc   
9         2.05170000      1.09820000      1.37680000 #  hpan       cp        cp         oc   

AngleTorsion Coeffs  # class2

1         0.00000000      0.00000000      0.00000000      0.00000000      0.00000000      0.00000000    120.00000000    120.00000000 #  cp        c=2        cp         cp   
2         0.00000000      0.00000000      0.00000000      0.00000000      0.00000000      0.00000000    120.00000000    120.00000000 #  o_1       c=2        cp         cp   
3         0.00000000      0.00000000      0.00000000      0.00000000      0.00000000      0.00000000    120.00000000    118.90000000 #  c=2        cp        cp         cp   
4         1.97670000      1.02390000      0.00000000      1.97670000      1.02390000      0.00000000    118.90000000    118.90000000 #  cp         cp        cp         cp   
5         0.00000000      2.50140000      0.00000000      0.00000000      2.71470000      0.00000000    118.90000000    117.94000000 #  cp         cp        cp       hpan   
6         0.00000000      0.00000000      0.00000000      0.00000000      0.00000000      0.00000000    120.00000000    117.94000000 #  c=2        cp        cp       hpan   
7         0.00000000      2.45010000      0.00000000      0.00000000      2.45010000      0.00000000    117.94000000    117.94000000 #  hpan       cp        cp       hpan   
8         0.00000000     10.01550000      0.00000000      0.00000000      1.74040000      0.00000000    118.90000000    123.42000000 #  cp         cp        cp         oc   
9         0.00000000      1.87290000      0.00000000      0.00000000      2.57060000      0.00000000    117.94000000    123.42000000 #  hpan       cp        cp         oc   

AngleAngle Coeffs  # class2

1         0.00000000      0.00000000      0.00000000    120.00000000    118.90000000    120.00000000 #  c=2        cp        cp        cp      nb==3   
2         0.00000000      0.00000000      0.00000000    120.00000000    120.00000000    120.00000000 #  cp        c=2        cp       o_1      nb==3   
3         0.00000000      0.00000000      0.00000000    118.90000000    117.94000000    117.94000000 #  cp         cp        cp       hpan     nb==3   
4         0.00000000      0.00000000      0.00000000    118.90000000    123.42000000    123.42000000 #  cp         cp        cp        oc      nb==3   

Atoms # full

 1  1  2   -0.126800    1.899881481     0.045040741     0.238370370      0    0    0 #  cp/C
 2  1  2   -0.126800    0.505081481     0.045040741     0.238270370      0    0    0 #  cp/C
 3  1  2   -0.126800    0.505181481    -2.370859259     0.238370370      0    0    0 #  cp/C
 4  1  2   -0.126800    1.899981481    -2.370959259     0.238370370      0    0    0 #  cp/C
 5  1  2    0.026500    2.597381481    -1.162859259     0.238370370      0    0    0 #  cp/C
 6  1  7   -0.026500    3.952381481    -1.162859259     0.238370370      0    0    0 #  oc/O
 7  1  1    0.000000   -2.364618519     3.203040741    -1.787729630      0    0    0 #  c=2/C
 8  1  2   -0.126800   -1.952718519     0.965940741    -0.738729630      0    0    0 #  cp/C
 9  1  2    0.000000   -2.650118519     2.173840741    -0.738829630      0    0    0 #  cp/C
10  1  2   -0.126800   -3.613718519     2.422740741     0.238570370      0    0    0 #  cp/C
11  1  2   -0.126800   -3.879918519     1.463840741     1.215770370      0    0    0 #  cp/C
12  1  2   -0.126800   -3.182518519     0.255840741     1.215770370      0    0    0 #  cp/C
13  1  2    0.000000   -2.218818519     0.006940741     0.238470370      0    0    0 #  cp/C
14  1  1    0.358300   -1.543318519    -1.163059259     0.238470370      0    0    0 #  c=2/C
15  1  6   -0.358300   -2.147218519    -2.209259259     0.238570370      0    0    0 #  o_1/O
16  1  3    0.126800   -1.192718519     0.769640741    -1.509429630      0    0    0 #  hpan/H
17  1  3    0.126800   -4.163718519     3.375440741     0.238570370      0    0    0 #  hpan/H
18  1  3    0.126800   -4.639718519     1.660140741     1.986470370      0    0    0 #  hpan/H
19  1  3    0.126800   -3.392418519    -0.500459259     1.986470370      0    0    0 #  hpan/H
20  1  2    0.000000   -0.192318519    -1.162959259     0.238370370      0    0    0 #  cp/C
21  1  3    0.126800   -0.044818519    -3.323559259     0.238470370      0    0    0 #  hpan/H
22  1  3    0.126800    2.449981481    -3.323559259     0.238270370      0    0    0 #  hpan/H
23  1  3    0.126800    2.449881481     0.997640741     0.238370370      0    0    0 #  hpan/H
24  1  3    0.126800   -0.044918519     0.997640741     0.238170370      0    0    0 #  hpan/H
25  2  5   -0.820000    7.309481481     0.315740741    -1.913529630      0    0    0 #  o*/O
26  2  4    0.410000    7.201981481    -0.612359259    -1.793429630      0    0    0 #  hw/H
27  2  4    0.410000    6.452381481     0.664240741    -1.737229630      0    0    0 #  hw/H

Bonds

  1   3     1     2  
  2   3     1     5  
  3   4     1    23  
  4   3     2    20  
  5   4     2    24  
  6   3     3     4  
  7   3     3    20  
  8   4     3    21  
  9   3     4     5  
 10   4     4    22  
 11   5     5     6  
 12   1     7     9  
 13   3     8     9  
 14   3     8    13  
 15   4     8    16  
 16   3     9    10  
 17   3    10    11  
 18   4    10    17  
 19   3    11    12  
 20   4    11    18  
 21   3    12    13  
 22   4    12    19  
 23   1    14    13  
 24   2    14    15  
 25   1    14    20  
 26   6    26    25  
 27   6    27    25  

Angles

  1   4     2     1     5  
  2   5     5     1    23  
  3   5     2     1    23  
  4   5    20     2    24  
  5   4     1     2    20  
  6   5     1     2    24  
  7   5     4     3    21  
  8   4     4     3    20  
  9   5    20     3    21  
 10   5     3     4    22  
 11   5     5     4    22  
 12   4     3     4     5  
 13   4     1     5     4  
 14   6     4     5     6  
 15   6     1     5     6  
 16   5    13     8    16  
 17   4     9     8    13  
 18   5     9     8    16  
 19   4     8     9    10  
 20   1     7     9     8  
 21   1     7     9    10  
 22   4     9    10    11  
 23   5     9    10    17  
 24   5    11    10    17  
 25   4    10    11    12  
 26   5    10    11    18  
 27   5    12    11    18  
 28   4    11    12    13  
 29   5    11    12    19  
 30   5    13    12    19  
 31   1    14    13     8  
 32   4     8    13    12  
 33   1    14    13    12  
 34   2    13    14    20  
 35   3    20    14    15  
 36   3    13    14    15  
 37   4     2    20     3  
 38   1    14    20     3  
 39   1    14    20     2  
 40   7    26    25    27  

Dihedrals

  1   4     5     1     2    20  
  2   4     2     1     5     4  
  3   5     5     1     2    24  
  4   7    23     1     2    24  
  5   8     2     1     5     6  
  6   3    14    20     2     1  
  7   4     1     2    20     3  
  8   5    20     2     1    23  
  9   7    21     3     4    22  
 10   5    20     3     4    22  
 11   3    14    20     3     4  
 12   8     3     4     5     6  
 13   5     5     4     3    21  
 14   4     5     4     3    20  
 15   5     4     5     1    23  
 16   9    22     4     5     6  
 17   9    23     1     5     6  
 18   5     1     5     4    22  
 19   4     1     5     4     3  
 20   4     9     8    13    12  
 21   3    14    13     8     9  
 22   4     8     9    10    11  
 23   5     8     9    10    17  
 24   3     7     9    10    11  
 25   6     7     9    10    17  
 26   4    10     9     8    13  
 27   5    10     9     8    16  
 28   3     7     9     8    13  
 29   6     7     9     8    16  
 30   4     9    10    11    12  
 31   5     9    10    11    18  
 32   7    17    10    11    18  
 33   7    18    11    12    19  
 34   4    10    11    12    13  
 35   5    10    11    12    19  
 36   5    12    11    10    17  
 37   5    13    12    11    18  
 38   3    14    13    12    11  
 39   6    14    13    12    19  
 40   1    20    14    13     8  
 41   5     8    13    12    19  
 42   2    15    14    13    12  
 43   5    12    13     8    16  
 44   2    15    14    13     8  
 45   1    20    14    13    12  
 46   4     8    13    12    11  
 47   6    14    13     8    16  
 48   2    15    14    20     2  
 49   5     2    20     3    21  
 50   6    14    20     3    21  
 51   5     3    20     2    24  
 52   1    13    14    20     3  
 53   4     2    20     3     4  
 54   6    14    20     2    24  
 55   1    13    14    20     2  
 56   2    15    14    20     3  

Impropers

  1   3     2     1     5    23  
  2   3     1     2    20    24  
  3   3     4     3    20    21  
  4   3     3     4     5    22  
  5   4     1     5     4     6  
  6   3     9     8    13    16  
  7   1     7     9     8    10  
  8   3     9    10    11    17  
  9   3    10    11    12    18  
 10   3    11    12    13    19  
 11   1    14    13     8    12  
 12   2    13    14    20    15  
 13   1    14    20     2     3  
