HEADER,  DPET_pre_rxn.mol  read w/ mol2lmp > atom_typing v1.5 / 4 July 2023 w/PCFF-IFF atom-types > all2lmp: v1.8 / 4 July 2023  Class: 2

26 atoms
26 bonds
38 angles
50 dihedrals
12 impropers

7 atom types
7 bond types
8 angle types
11 dihedral types
4 improper types

-6.750088461 7.492911538 xlo xhi
-2.768434615 2.773565385 ylo yhi
-0.500534615 0.500265385 zlo zhi

Masses

1   12.01115000  #  c=2  
2   12.01115000  #  cp   
3    1.00797000  #  ho   
4    1.00797000  #  hpan 
5   15.99940000  #  o=   
6   15.99940000  #  oc   
7   15.99940000  #  oh   

Pair Coeffs  # lj/class2/coul/long

1         0.06400000      4.01000000 #  c=2  
2         0.06400000      4.01000000 #  cp   
3         0.01300000      1.09800000 #  ho   
4         0.02000000      2.30000000 #  hpan 
5         0.28000000      3.25000000 #  o=   
6         0.24000000      3.53500000 #  oc   
7         0.24000000      3.53500000 #  oh   

Bond Coeffs  # class2

1         1.50000000    322.80000000      0.00000000      0.00000000 #  c=2         cp   
2         1.16000000   1112.00000000      0.00000000      0.00000000 #  c=2         o=   
3         1.36800000    355.19880000      0.00000000      0.00000000 #  c=2         oh   
4         1.41700000    470.83610000   -627.61790000   1327.63450000 #  cp          cp   
5         1.09820000    372.82510000   -803.45260000    894.31730000 #  cp        hpan   
6         1.37680000    428.87980000   -738.23510000   1114.96550000 #  cp          oc   
7         0.96500000    532.50620000  -1282.90500000   2004.76580000 #  ho          oh   

Angle Coeffs  # class2

1       120.00000000     80.00000000      0.00000000      0.00000000 #  c=2        cp         cp   
2       109.00000000     58.50000000      0.00000000      0.00000000 #  c=2        oh         ho   
3       120.00000000     68.00000000      0.00000000      0.00000000 #  cp        c=2         o=   
4       120.00000000     68.00000000      0.00000000      0.00000000 #  cp        c=2         oh   
5       118.90000000     61.02260000    -34.99310000      0.00000000 #  cp         cp         cp   
6       117.94000000     35.15580000    -12.46820000      0.00000000 #  cp         cp       hpan   
7       123.42000000     73.67810000    -21.67870000      0.00000000 #  cp         cp         oc   
8       120.00000000     68.00000000      0.00000000      0.00000000 #  o=        c=2         oh   

Dihedral Coeffs  # class2

1         0.00000000      0.00000000      0.90000000      0.00000000      0.00000000      0.00000000 #  cp        c=2        oh         ho   
2         0.00000000      0.00000000      0.50000000      0.00000000      0.00000000      0.00000000 #  o=        c=2        cp         cp   
3         0.00000000      0.00000000      0.50000000      0.00000000      0.00000000      0.00000000 #  oh        c=2        cp         cp   
4         0.00000000      0.00000000      3.00000000      0.00000000      0.00000000      0.00000000 #  c=2        cp        cp         cp   
5         8.36670000      0.00000000      1.19320000      0.00000000      0.00000000      0.00000000 #  cp         cp        cp         cp   
6         0.00000000      0.00000000      3.96610000      0.00000000      0.00000000      0.00000000 #  cp         cp        cp       hpan   
7         0.00000000      0.00000000      3.00000000      0.00000000      0.00000000      0.00000000 #  c=2        cp        cp       hpan   
8         0.00000000      0.00000000      1.87690000      0.00000000      0.00000000      0.00000000 #  hpan       cp        cp       hpan   
9         0.00000000      0.00000000      4.84980000      0.00000000      0.00000000      0.00000000 #  cp         cp        cp         oc   
10        0.00000000      0.00000000      1.72340000      0.00000000      0.00000000      0.00000000 #  hpan       cp        cp         oc   
11        0.00000000      0.00000000      0.90000000      0.00000000      0.00000000      0.00000000 #  o=        c=2        oh         ho   

Improper Coeffs  # class2

1        10.00000000      0.00000000 #  c=2        cp        cp        cp      nb==3   
2         2.05680000      0.00000000 #  cp        c=2        o=        oh      nb==3   
3         4.89120000      0.00000000 #  cp         cp        cp       hpan     nb==3   
4        13.04210000      0.00000000 #  cp         cp        cp        oc      nb==3   

BondBond Coeffs  # class2

1         0.00000000      1.50000000      1.41700000 #  c=2        cp         cp   
2         0.00000000      1.36800000      0.96500000 #  c=2        oh         ho   
3         0.00000000      1.50000000      1.16000000 #  cp        c=2         o=   
4         0.00000000      1.50000000      1.36800000 #  cp        c=2         oh   
5        68.28560000      1.41700000      1.41700000 #  cp         cp         cp   
6         1.07950000      1.41700000      1.09820000 #  cp         cp       hpan   
7        48.47540000      1.41700000      1.37680000 #  cp         cp         oc   
8         0.00000000      1.16000000      1.36800000 #  o=        c=2         oh   

BondAngle Coeffs  # class2

1         0.00000000      0.00000000      1.50000000      1.41700000 #  c=2        cp         cp   
2         0.00000000      0.00000000      1.36800000      0.96500000 #  c=2        oh         ho   
3         0.00000000      0.00000000      1.50000000      1.16000000 #  cp        c=2         o=   
4         0.00000000      0.00000000      1.50000000      1.36800000 #  cp        c=2         oh   
5        28.87080000     28.87080000      1.41700000      1.41700000 #  cp         cp         cp   
6        20.00330000     24.21830000      1.41700000      1.09820000 #  cp         cp       hpan   
7        58.47900000    107.68060000      1.41700000      1.37680000 #  cp         cp         oc   
8         0.00000000      0.00000000      1.16000000      1.36800000 #  o=        c=2         oh   

AngleAngleTorsion Coeffs  # class2

1         0.00000000    120.00000000    109.00000000 #  cp        c=2        oh         ho   
2         0.00000000    120.00000000    120.00000000 #  o=        c=2        cp         cp   
3         0.00000000    120.00000000    120.00000000 #  oh        c=2        cp         cp   
4         0.00000000    120.00000000    118.90000000 #  c=2        cp        cp         cp   
5         0.00000000    118.90000000    118.90000000 #  cp         cp        cp         cp   
6        -4.81410000    118.90000000    117.94000000 #  cp         cp        cp       hpan   
7         0.00000000    120.00000000    117.94000000 #  c=2        cp        cp       hpan   
8         0.35980000    117.94000000    117.94000000 #  hpan       cp        cp       hpan   
9       -21.02470000    118.90000000    123.42000000 #  cp         cp        cp         oc   
10        4.22960000    117.94000000    123.42000000 #  hpan       cp        cp         oc   
11        0.00000000    120.00000000    109.00000000 #  o=        c=2        oh         ho   

EndBondTorsion Coeffs  # class2

1         0.00000000      0.00000000      0.00000000      0.00000000      0.00000000      0.00000000      1.50000000      0.96500000 #  cp        c=2        oh         ho   
2         0.00000000      0.00000000      0.00000000      0.00000000      0.00000000      0.00000000      1.16000000      1.41700000 #  o=        c=2        cp         cp   
3         0.00000000      0.00000000      0.00000000      0.00000000      0.00000000      0.00000000      1.36800000      1.41700000 #  oh        c=2        cp         cp   
4         0.00000000      0.00000000      0.00000000      0.00000000      0.00000000      0.00000000      1.50000000      1.41700000 #  c=2        cp        cp         cp   
5        -0.11850000      6.32040000      0.00000000     -0.11850000      6.32040000      0.00000000      1.41700000      1.41700000 #  cp         cp        cp         cp   
6         0.00000000     -6.89580000      0.00000000      0.00000000     -0.46690000      0.00000000      1.41700000      1.09820000 #  cp         cp        cp       hpan   
7         0.00000000      0.00000000      0.00000000      0.00000000      0.00000000      0.00000000      1.50000000      1.09820000 #  c=2        cp        cp       hpan   
8         0.00000000     -0.68900000      0.00000000      0.00000000     -0.68900000      0.00000000      1.09820000      1.09820000 #  hpan       cp        cp       hpan   
9         0.00000000      0.26550000      0.00000000      0.00000000      4.89050000      0.00000000      1.41700000      1.37680000 #  cp         cp        cp         oc   
10        0.00000000     -1.58670000      0.00000000      0.00000000      4.26410000      0.00000000      1.09820000      1.37680000 #  hpan       cp        cp         oc   
11        0.00000000      0.00000000      0.00000000      0.00000000      0.00000000      0.00000000      1.16000000      0.96500000 #  o=        c=2        oh         ho   

MiddleBondTorsion Coeffs  # class2

1         0.00000000      0.00000000      0.00000000      1.36800000 #  cp        c=2        oh         ho   
2         0.00000000      0.00000000      0.00000000      1.50000000 #  o=        c=2        cp         cp   
3         0.00000000      0.00000000      0.00000000      1.50000000 #  oh        c=2        cp         cp   
4         0.00000000      0.00000000      0.00000000      1.41700000 #  c=2        cp        cp         cp   
5        27.59890000     -2.31200000      0.00000000      1.41700000 #  cp         cp        cp         cp   
6         0.00000000     -1.15210000      0.00000000      1.41700000 #  cp         cp        cp       hpan   
7         0.00000000      0.00000000      0.00000000      1.41700000 #  c=2        cp        cp       hpan   
8         0.00000000      4.82280000      0.00000000      1.41700000 #  hpan       cp        cp       hpan   
9         0.00000000      4.82550000      0.00000000      1.41700000 #  cp         cp        cp         oc   
10        0.00000000      5.54320000      0.00000000      1.41700000 #  hpan       cp        cp         oc   
11        0.00000000      0.00000000      0.00000000      1.36800000 #  o=        c=2        oh         ho   

BondBond13 Coeffs  # class2

1         0.00000000      1.50000000      0.96500000 #  cp        c=2        oh         ho   
2         0.00000000      1.16000000      1.41700000 #  o=        c=2        cp         cp   
3         0.00000000      1.36800000      1.41700000 #  oh        c=2        cp         cp   
4         0.00000000      1.50000000      1.41700000 #  c=2        cp        cp         cp   
5        53.00000000      1.41700000      1.41700000 #  cp         cp        cp         cp   
6        -6.27410000      1.41700000      1.09820000 #  cp         cp        cp       hpan   
7         0.00000000      1.50000000      1.09820000 #  c=2        cp        cp       hpan   
8        -1.70770000      1.09820000      1.09820000 #  hpan       cp        cp       hpan   
9        -2.24360000      1.41700000      1.37680000 #  cp         cp        cp         oc   
10        2.05170000      1.09820000      1.37680000 #  hpan       cp        cp         oc   
11        0.00000000      1.16000000      0.96500000 #  o=        c=2        oh         ho   

AngleTorsion Coeffs  # class2

1         0.00000000      0.00000000      0.00000000      0.00000000      0.00000000      0.00000000    120.00000000    109.00000000 #  cp        c=2        oh         ho   
2         0.00000000      0.00000000      0.00000000      0.00000000      0.00000000      0.00000000    120.00000000    120.00000000 #  o=        c=2        cp         cp   
3         0.00000000      0.00000000      0.00000000      0.00000000      0.00000000      0.00000000    120.00000000    120.00000000 #  oh        c=2        cp         cp   
4         0.00000000      0.00000000      0.00000000      0.00000000      0.00000000      0.00000000    120.00000000    118.90000000 #  c=2        cp        cp         cp   
5         1.97670000      1.02390000      0.00000000      1.97670000      1.02390000      0.00000000    118.90000000    118.90000000 #  cp         cp        cp         cp   
6         0.00000000      2.50140000      0.00000000      0.00000000      2.71470000      0.00000000    118.90000000    117.94000000 #  cp         cp        cp       hpan   
7         0.00000000      0.00000000      0.00000000      0.00000000      0.00000000      0.00000000    120.00000000    117.94000000 #  c=2        cp        cp       hpan   
8         0.00000000      2.45010000      0.00000000      0.00000000      2.45010000      0.00000000    117.94000000    117.94000000 #  hpan       cp        cp       hpan   
9         0.00000000     10.01550000      0.00000000      0.00000000      1.74040000      0.00000000    118.90000000    123.42000000 #  cp         cp        cp         oc   
10        0.00000000      1.87290000      0.00000000      0.00000000      2.57060000      0.00000000    117.94000000    123.42000000 #  hpan       cp        cp         oc   
11        0.00000000      0.00000000      0.00000000      0.00000000      0.00000000      0.00000000    120.00000000    109.00000000 #  o=        c=2        oh         ho   

AngleAngle Coeffs  # class2

1         0.00000000      0.00000000      0.00000000    120.00000000    118.90000000    120.00000000 #  c=2        cp        cp        cp      nb==3   
2         0.00000000      0.00000000      0.00000000    120.00000000    120.00000000    120.00000000 #  cp        c=2        o=        oh      nb==3   
3         0.00000000      0.00000000      0.00000000    118.90000000    117.94000000    117.94000000 #  cp         cp        cp       hpan     nb==3   
4         0.00000000      0.00000000      0.00000000    118.90000000    123.42000000    123.42000000 #  cp         cp        cp        oc      nb==3   

Atoms # full

 1  1  2   -0.126800   -5.552588462     1.210565385     0.000165385      0    0    0 #  cp/C
 2  1  2    0.000000   -6.250088462     0.002665385     0.000165385      0    0    0 #  cp/C
 3  1  2   -0.126800   -5.552688462    -1.205334615     0.000165385      0    0    0 #  cp/C
 4  1  2   -0.126800   -4.157888462    -1.205434615    -0.000034615      0    0    0 #  cp/C
 5  1  2    0.000000   -3.460388462     0.002465385    -0.000134615      0    0    0 #  cp/C
 6  1  2   -0.126800   -4.157788462     1.210465385    -0.000034615      0    0    0 #  cp/C
 7  1  1    0.146500   -2.109388462     0.002365385    -0.000234615      0    0    0 #  c=2/C
 8  1  7   -0.450600   -1.440288462     1.161165385    -0.000334615      0    0    0 #  oh/O
 9  1  5   -0.120000   -1.505388462    -1.043734615    -0.000334615      0    0    0 #  o=/O
10  1  4    0.126800   -6.102588462     2.163165385     0.000265385      0    0    0 #  hpan/H
11  1  4    0.126800   -6.102688462    -2.158034615     0.000265385      0    0    0 #  hpan/H
12  1  4    0.126800   -3.607888462    -2.158034615    -0.000034615      0    0    0 #  hpan/H
13  1  4    0.126800   -3.607788462     2.163165385    -0.000034615      0    0    0 #  hpan/H
14  1  3    0.424100   -0.496788462     0.927565385    -0.000534615      0    0    0 #  ho/H
15  2  2   -0.126800    3.800711538     1.100165385     0.000165385      0    0    0 #  cp/C
16  2  2   -0.126800    3.103211538    -0.107734615     0.000165385      0    0    0 #  cp/C
17  2  2   -0.126800    3.800611538    -1.315734615     0.000165385      0    0    0 #  cp/C
18  2  2   -0.126800    5.195411538    -1.315734615    -0.000034615      0    0    0 #  cp/C
19  2  2   -0.126800    5.892911538    -0.107934615    -0.000134615      0    0    0 #  cp/C
20  2  2    0.026500    5.195511538     1.100065385    -0.000034615      0    0    0 #  cp/C
21  2  6   -0.026500    5.873011538     2.273565385    -0.000034615      0    0    0 #  oc/O
22  2  4    0.126800    3.250711538     2.052765385     0.000265385      0    0    0 #  hpan/H
23  2  4    0.126800    2.003211538    -0.107734615     0.000165385      0    0    0 #  hpan/H
24  2  4    0.126800    3.250611538    -2.268334615     0.000265385      0    0    0 #  hpan/H
25  2  4    0.126800    5.745411538    -2.268434615    -0.000034615      0    0    0 #  hpan/H
26  2  4    0.126800    6.992911538    -0.107934615    -0.000234615      0    0    0 #  hpan/H

Bonds

  1   4     1     2  
  2   4     1     6  
  3   5     1    10  
  4   4     2     3  
  5   4     3     4  
  6   5     3    11  
  7   4     4     5  
  8   5     4    12  
  9   4     5     6  
 10   1     7     5  
 11   5     6    13  
 12   3     7     8  
 13   2     7     9  
 14   7    14     8  
 15   4    15    16  
 16   4    15    20  
 17   5    15    22  
 18   4    16    17  
 19   5    16    23  
 20   4    17    18  
 21   5    17    24  
 22   4    18    19  
 23   5    18    25  
 24   4    19    20  
 25   5    19    26  
 26   6    20    21  

Angles

  1   5     2     1     6  
  2   6     6     1    10  
  3   6     2     1    10  
  4   5     1     2     3  
  5   6     4     3    11  
  6   6     2     3    11  
  7   5     2     3     4  
  8   6     3     4    12  
  9   6     5     4    12  
 10   5     3     4     5  
 11   5     4     5     6  
 12   1     7     5     6  
 13   1     7     5     4  
 14   5     1     6     5  
 15   6     5     6    13  
 16   6     1     6    13  
 17   3     5     7     9  
 18   4     5     7     8  
 19   8     9     7     8  
 20   2     7     8    14  
 21   5    16    15    20  
 22   6    16    15    22  
 23   6    20    15    22  
 24   6    17    16    23  
 25   5    15    16    17  
 26   6    15    16    23  
 27   5    16    17    18  
 28   6    16    17    24  
 29   6    18    17    24  
 30   5    17    18    19  
 31   6    17    18    25  
 32   6    19    18    25  
 33   5    18    19    20  
 34   6    18    19    26  
 35   6    20    19    26  
 36   5    15    20    19  
 37   7    19    20    21  
 38   7    15    20    21  

Dihedrals

  1   8    10     1     6    13  
  2   6     2     1     6    13  
  3   5     2     1     6     5  
  4   5     3     2     1     6  
  5   5     1     2     3     4  
  6   6     3     2     1    10  
  7   6     1     2     3    11  
  8   6     2     3     4    12  
  9   8    11     3     4    12  
 10   5     2     3     4     5  
 11   5     3     4     5     6  
 12   6     5     4     3    11  
 13   4     7     5     4     3  
 14   2     9     7     5     4  
 15   6     4     5     6    13  
 16   2     9     7     5     6  
 17   7     7     5     4    12  
 18   3     8     7     5     4  
 19   6     6     5     4    12  
 20   3     8     7     5     6  
 21   7     7     5     6    13  
 22   5     1     6     5     4  
 23   6     5     6     1    10  
 24   4     7     5     6     1  
 25   1     5     7     8    14  
 26   11    9     7     8    14  
 27   8    22    15    16    23  
 28   9    16    15    20    21  
 29   5    16    15    20    19  
 30   6    20    15    16    23  
 31   5    17    16    15    20  
 32   5    15    16    17    18  
 33   6    15    16    17    24  
 34   6    17    16    15    22  
 35   8    23    16    17    24  
 36   6    18    17    16    23  
 37   8    24    17    18    25  
 38   5    16    17    18    19  
 39   6    16    17    18    25  
 40   5    17    18    19    20  
 41   6    17    18    19    26  
 42   6    19    18    17    24  
 43   8    25    18    19    26  
 44   6    20    19    18    25  
 45   9    18    19    20    21  
 46   5    15    20    19    18  
 47   6    19    20    15    22  
 48   6    15    20    19    26  
 49   10   26    19    20    21  
 50   10   22    15    20    21  

Impropers

  1   3     2     1     6    10  
  2   3     2     3     4    11  
  3   3     3     4     5    12  
  4   1     7     5     4     6  
  5   3     1     6     5    13  
  6   2     5     7     9     8  
  7   3    16    15    20    22  
  8   3    15    16    17    23  
  9   3    16    17    18    24  
 10   3    17    18    19    25  
 11   3    18    19    20    26  
 12   4    15    20    19    21  
