HEADER,  DPET_post_rxn.mol  read w/ mol2lmp > atom_typing v1.5 / 4 July 2023 w/PCFF-IFF atom-types > all2lmp: v1.8 / 4 July 2023  Class: 2

26 atoms
26 bonds
38 angles
52 dihedrals
12 impropers

7 atom types
6 bond types
7 angle types
9 dihedral types
4 improper types

-5.113303846 7.545696154 xlo xhi
-3.634669231 3.524130769 ylo yhi
-2.439215385 2.303184615 zlo zhi

Masses

1   12.01115000  #  c=2  
2   12.01115000  #  cp   
3    1.00797000  #  hpan 
4    1.00797000  #  hw   
5   15.99940000  #  o*   
6   15.99940000  #  o_1  
7   15.99940000  #  oc   

Pair Coeffs  # lj/class2/coul/long

1         0.06400000      4.01000000 #  c=2  
2         0.06400000      4.01000000 #  cp   
3         0.02000000      2.30000000 #  hpan 
4         0.01300000      1.09800000 #  hw   
5         0.26000000      3.61000000 #  o*   
6         0.26700000      3.30000000 #  o_1  
7         0.24000000      3.53500000 #  oc   

Bond Coeffs  # class2

1         1.50000000    322.80000000      0.00000000      0.00000000 #  c=2         cp   
2         1.35500000    312.91160000      0.00000000      0.00000000 #  c=2        o_1   
3         1.41700000    470.83610000   -627.61790000   1327.63450000 #  cp          cp   
4         1.09820000    372.82510000   -803.45260000    894.31730000 #  cp        hpan   
5         1.37680000    428.87980000   -738.23510000   1114.96550000 #  cp          oc   
6         0.97000000    563.28000000  -1428.22000000   1902.12000000 #  hw          o*   

Angle Coeffs  # class2

1       120.00000000     80.00000000      0.00000000      0.00000000 #  c=2        cp         cp   
2       120.00000000     36.20000000      0.00000000      0.00000000 #  cp        c=2         cp   
3       120.00000000     68.00000000      0.00000000      0.00000000 #  cp        c=2        o_1   
4       118.90000000     61.02260000    -34.99310000      0.00000000 #  cp         cp         cp   
5       117.94000000     35.15580000    -12.46820000      0.00000000 #  cp         cp       hpan   
6       123.42000000     73.67810000    -21.67870000      0.00000000 #  cp         cp         oc   
7       103.70000000     49.84000000    -11.60000000     -8.00000000 #  hw         o*         hw   

Dihedral Coeffs  # class2

1         0.00000000      0.00000000      0.50000000      0.00000000      0.00000000      0.00000000 #  cp        c=2        cp         cp   
2         0.00000000      0.00000000      0.50000000      0.00000000      0.00000000      0.00000000 #  o_1       c=2        cp         cp   
3         0.00000000      0.00000000      3.00000000      0.00000000      0.00000000      0.00000000 #  c=2        cp        cp         cp   
4         8.36670000      0.00000000      1.19320000      0.00000000      0.00000000      0.00000000 #  cp         cp        cp         cp   
5         0.00000000      0.00000000      3.96610000      0.00000000      0.00000000      0.00000000 #  cp         cp        cp       hpan   
6         0.00000000      0.00000000      3.00000000      0.00000000      0.00000000      0.00000000 #  c=2        cp        cp       hpan   
7         0.00000000      0.00000000      1.87690000      0.00000000      0.00000000      0.00000000 #  hpan       cp        cp       hpan   
8         0.00000000      0.00000000      4.84980000      0.00000000      0.00000000      0.00000000 #  cp         cp        cp         oc   
9         0.00000000      0.00000000      1.72340000      0.00000000      0.00000000      0.00000000 #  hpan       cp        cp         oc   

Improper Coeffs  # class2

1        10.00000000      0.00000000 #  c=2        cp        cp        cp      nb==3   
2         2.05680000      0.00000000 #  cp        c=2        cp       o_1      nb==3   
3         4.89120000      0.00000000 #  cp         cp        cp       hpan     nb==3   
4        13.04210000      0.00000000 #  cp         cp        cp        oc      nb==3   

BondBond Coeffs  # class2

1         0.00000000      1.50000000      1.41700000 #  c=2        cp         cp   
2         0.00000000      1.50000000      1.50000000 #  cp        c=2         cp   
3         0.00000000      1.50000000      1.35500000 #  cp        c=2        o_1   
4        68.28560000      1.41700000      1.41700000 #  cp         cp         cp   
5         1.07950000      1.41700000      1.09820000 #  cp         cp       hpan   
6        48.47540000      1.41700000      1.37680000 #  cp         cp         oc   
7        -9.50000000      0.97000000      0.97000000 #  hw         o*         hw   

BondAngle Coeffs  # class2

1         0.00000000      0.00000000      1.50000000      1.41700000 #  c=2        cp         cp   
2         0.00000000      0.00000000      1.50000000      1.50000000 #  cp        c=2         cp   
3         0.00000000      0.00000000      1.50000000      1.35500000 #  cp        c=2        o_1   
4        28.87080000     28.87080000      1.41700000      1.41700000 #  cp         cp         cp   
5        20.00330000     24.21830000      1.41700000      1.09820000 #  cp         cp       hpan   
6        58.47900000    107.68060000      1.41700000      1.37680000 #  cp         cp         oc   
7        22.35000000     22.35000000      0.97000000      0.97000000 #  hw         o*         hw   

AngleAngleTorsion Coeffs  # class2

1         0.00000000    120.00000000    120.00000000 #  cp        c=2        cp         cp   
2         0.00000000    120.00000000    120.00000000 #  o_1       c=2        cp         cp   
3         0.00000000    120.00000000    118.90000000 #  c=2        cp        cp         cp   
4         0.00000000    118.90000000    118.90000000 #  cp         cp        cp         cp   
5        -4.81410000    118.90000000    117.94000000 #  cp         cp        cp       hpan   
6         0.00000000    120.00000000    117.94000000 #  c=2        cp        cp       hpan   
7         0.35980000    117.94000000    117.94000000 #  hpan       cp        cp       hpan   
8       -21.02470000    118.90000000    123.42000000 #  cp         cp        cp         oc   
9         4.22960000    117.94000000    123.42000000 #  hpan       cp        cp         oc   

EndBondTorsion Coeffs  # class2

1         0.00000000      0.00000000      0.00000000      0.00000000      0.00000000      0.00000000      1.50000000      1.41700000 #  cp        c=2        cp         cp   
2         0.00000000      0.00000000      0.00000000      0.00000000      0.00000000      0.00000000      1.35500000      1.41700000 #  o_1       c=2        cp         cp   
3         0.00000000      0.00000000      0.00000000      0.00000000      0.00000000      0.00000000      1.50000000      1.41700000 #  c=2        cp        cp         cp   
4        -0.11850000      6.32040000      0.00000000     -0.11850000      6.32040000      0.00000000      1.41700000      1.41700000 #  cp         cp        cp         cp   
5         0.00000000     -6.89580000      0.00000000      0.00000000     -0.46690000      0.00000000      1.41700000      1.09820000 #  cp         cp        cp       hpan   
6         0.00000000      0.00000000      0.00000000      0.00000000      0.00000000      0.00000000      1.50000000      1.09820000 #  c=2        cp        cp       hpan   
7         0.00000000     -0.68900000      0.00000000      0.00000000     -0.68900000      0.00000000      1.09820000      1.09820000 #  hpan       cp        cp       hpan   
8         0.00000000      0.26550000      0.00000000      0.00000000      4.89050000      0.00000000      1.41700000      1.37680000 #  cp         cp        cp         oc   
9         0.00000000     -1.58670000      0.00000000      0.00000000      4.26410000      0.00000000      1.09820000      1.37680000 #  hpan       cp        cp         oc   

MiddleBondTorsion Coeffs  # class2

1         0.00000000      0.00000000      0.00000000      1.50000000 #  cp        c=2        cp         cp   
2         0.00000000      0.00000000      0.00000000      1.50000000 #  o_1       c=2        cp         cp   
3         0.00000000      0.00000000      0.00000000      1.41700000 #  c=2        cp        cp         cp   
4        27.59890000     -2.31200000      0.00000000      1.41700000 #  cp         cp        cp         cp   
5         0.00000000     -1.15210000      0.00000000      1.41700000 #  cp         cp        cp       hpan   
6         0.00000000      0.00000000      0.00000000      1.41700000 #  c=2        cp        cp       hpan   
7         0.00000000      4.82280000      0.00000000      1.41700000 #  hpan       cp        cp       hpan   
8         0.00000000      4.82550000      0.00000000      1.41700000 #  cp         cp        cp         oc   
9         0.00000000      5.54320000      0.00000000      1.41700000 #  hpan       cp        cp         oc   

BondBond13 Coeffs  # class2

1         0.00000000      1.50000000      1.41700000 #  cp        c=2        cp         cp   
2         0.00000000      1.35500000      1.41700000 #  o_1       c=2        cp         cp   
3         0.00000000      1.50000000      1.41700000 #  c=2        cp        cp         cp   
4        53.00000000      1.41700000      1.41700000 #  cp         cp        cp         cp   
5        -6.27410000      1.41700000      1.09820000 #  cp         cp        cp       hpan   
6         0.00000000      1.50000000      1.09820000 #  c=2        cp        cp       hpan   
7        -1.70770000      1.09820000      1.09820000 #  hpan       cp        cp       hpan   
8        -2.24360000      1.41700000      1.37680000 #  cp         cp        cp         oc   
9         2.05170000      1.09820000      1.37680000 #  hpan       cp        cp         oc   

AngleTorsion Coeffs  # class2

1         0.00000000      0.00000000      0.00000000      0.00000000      0.00000000      0.00000000    120.00000000    120.00000000 #  cp        c=2        cp         cp   
2         0.00000000      0.00000000      0.00000000      0.00000000      0.00000000      0.00000000    120.00000000    120.00000000 #  o_1       c=2        cp         cp   
3         0.00000000      0.00000000      0.00000000      0.00000000      0.00000000      0.00000000    120.00000000    118.90000000 #  c=2        cp        cp         cp   
4         1.97670000      1.02390000      0.00000000      1.97670000      1.02390000      0.00000000    118.90000000    118.90000000 #  cp         cp        cp         cp   
5         0.00000000      2.50140000      0.00000000      0.00000000      2.71470000      0.00000000    118.90000000    117.94000000 #  cp         cp        cp       hpan   
6         0.00000000      0.00000000      0.00000000      0.00000000      0.00000000      0.00000000    120.00000000    117.94000000 #  c=2        cp        cp       hpan   
7         0.00000000      2.45010000      0.00000000      0.00000000      2.45010000      0.00000000    117.94000000    117.94000000 #  hpan       cp        cp       hpan   
8         0.00000000     10.01550000      0.00000000      0.00000000      1.74040000      0.00000000    118.90000000    123.42000000 #  cp         cp        cp         oc   
9         0.00000000      1.87290000      0.00000000      0.00000000      2.57060000      0.00000000    117.94000000    123.42000000 #  hpan       cp        cp         oc   

AngleAngle Coeffs  # class2

1         0.00000000      0.00000000      0.00000000    120.00000000    118.90000000    120.00000000 #  c=2        cp        cp        cp      nb==3   
2         0.00000000      0.00000000      0.00000000    120.00000000    120.00000000    120.00000000 #  cp        c=2        cp       o_1      nb==3   
3         0.00000000      0.00000000      0.00000000    118.90000000    117.94000000    117.94000000 #  cp         cp        cp       hpan     nb==3   
4         0.00000000      0.00000000      0.00000000    118.90000000    123.42000000    123.42000000 #  cp         cp        cp        oc      nb==3   

Atoms # full

 1  1  2   -0.126800    1.762196154     0.233930769    -0.068215385      0    0    0 #  cp/C
 2  1  2   -0.126800    0.367396154     0.233930769    -0.068215385      0    0    0 #  cp/C
 3  1  2    0.000000   -0.330003846    -0.974069231    -0.068115385      0    0    0 #  cp/C
 4  1  2   -0.126800    0.367396154    -2.181969231    -0.068115385      0    0    0 #  cp/C
 5  1  2   -0.126800    1.762196154    -2.182069231    -0.068215385      0    0    0 #  cp/C
 6  1  2    0.026500    2.459596154    -0.973969231    -0.068215385      0    0    0 #  cp/C
 7  1  7   -0.026500    3.814596154    -0.973969231    -0.068215385      0    0    0 #  oc/O
 8  1  2   -0.126800   -3.925803846     1.705630769     0.978184615      0    0    0 #  cp/C
 9  1  2    0.000000   -3.751603846     2.611730769    -0.067915385      0    0    0 #  cp/C
10  1  2   -0.126800   -2.879903846     2.309630769    -1.114115385      0    0    0 #  cp/C
11  1  2   -0.126800   -2.182403846     1.101730769    -1.114115385      0    0    0 #  cp/C
12  1  2    0.000000   -2.356603846     0.195830769    -0.068015385      0    0    0 #  cp/C
13  1  2   -0.126800   -3.228403846     0.497730769     0.978184615      0    0    0 #  cp/C
14  1  6   -0.358300   -2.285003846    -2.020369231    -0.067915385      0    0    0 #  o_1/O
15  1  1    0.358300   -1.681003846    -0.974169231    -0.068015385      0    0    0 #  c=2/C
16  1  3    0.126800    2.312096154     1.186530769    -0.068215385      0    0    0 #  hpan/H
17  1  3    0.126800   -0.182703846     1.186530769    -0.068315385      0    0    0 #  hpan/H
18  1  3    0.126800   -0.182503846    -3.134669231    -0.068115385      0    0    0 #  hpan/H
19  1  3    0.126800    2.312196154    -3.134669231    -0.068215385      0    0    0 #  hpan/H
20  1  3    0.126800   -4.613303846     1.943730769     1.803184615      0    0    0 #  hpan/H
21  1  3    0.126800   -2.742503846     3.024130769    -1.939215385      0    0    0 #  hpan/H
22  1  3    0.126800   -1.495003846     0.863630769    -1.939215385      0    0    0 #  hpan/H
23  1  3    0.126800   -3.365803846    -0.216669231     1.803184615      0    0    0 #  hpan/H
24  2  5   -0.820000    7.045696154    -0.217569231     0.443084615      0    0    0 #  o*/O
25  2  4    0.410000    6.684596154     0.652430769     0.444484615      0    0    0 #  hw/H
26  2  4    0.410000    6.314596154    -0.762969231     0.678384615      0    0    0 #  hw/H

Bonds

  1   3     1     2  
  2   3     1     6  
  3   4     1    16  
  4   3     2     3  
  5   4     2    17  
  6   3     3     4  
  7   1    15     3  
  8   3     4     5  
  9   4     4    18  
 10   3     5     6  
 11   4     5    19  
 12   5     6     7  
 13   3     8     9  
 14   3     8    13  
 15   4     8    20  
 16   3     9    10  
 17   3    10    11  
 18   4    10    21  
 19   3    11    12  
 20   4    11    22  
 21   3    12    13  
 22   1    15    12  
 23   4    13    23  
 24   2    15    14  
 25   6    25    24  
 26   6    26    24  

Angles

  1   4     2     1     6  
  2   5     6     1    16  
  3   5     2     1    16  
  4   5     1     2    17  
  5   4     1     2     3  
  6   5     3     2    17  
  7   1    15     3     4  
  8   1    15     3     2  
  9   4     2     3     4  
 10   5     3     4    18  
 11   5     5     4    18  
 12   4     3     4     5  
 13   4     4     5     6  
 14   5     6     5    19  
 15   5     4     5    19  
 16   6     5     6     7  
 17   4     1     6     5  
 18   6     1     6     7  
 19   5    13     8    20  
 20   5     9     8    20  
 21   4     9     8    13  
 22   4     8     9    10  
 23   5     9    10    21  
 24   5    11    10    21  
 25   4     9    10    11  
 26   4    10    11    12  
 27   5    12    11    22  
 28   5    10    11    22  
 29   4    11    12    13  
 30   1    15    12    11  
 31   1    15    12    13  
 32   5    12    13    23  
 33   5     8    13    23  
 34   4     8    13    12  
 35   3    12    15    14  
 36   2     3    15    12  
 37   3     3    15    14  
 38   7    25    24    26  

Dihedrals

  1   8     2     1     6     7  
  2   5     6     1     2    17  
  3   4     2     1     6     5  
  4   7    16     1     2    17  
  5   4     3     2     1     6  
  6   4     1     2     3     4  
  7   3    15     3     2     1  
  8   5     3     2     1    16  
  9   1    12    15     3     2  
 10   5     2     3     4    18  
 11   2    14    15     3     2  
 12   4     2     3     4     5  
 13   6    15     3     4    18  
 14   1    12    15     3     4  
 15   6    15     3     2    17  
 16   5     4     3     2    17  
 17   2    14    15     3     4  
 18   5     3     4     5    19  
 19   7    18     4     5    19  
 20   4     3     4     5     6  
 21   3    15     3     4     5  
 22   5     6     5     4    18  
 23   8     4     5     6     7  
 24   9    19     5     6     7  
 25   4     1     6     5     4  
 26   5     5     6     1    16  
 27   5     1     6     5    19  
 28   9    16     1     6     7  
 29   4     9     8    13    12  
 30   7    20     8    13    23  
 31   5     9     8    13    23  
 32   4     8     9    10    11  
 33   5    10     9     8    20  
 34   4    10     9     8    13  
 35   5     8     9    10    21  
 36   4     9    10    11    12  
 37   5     9    10    11    22  
 38   7    21    10    11    22  
 39   5    12    11    10    21  
 40   4    10    11    12    13  
 41   3    15    12    11    10  
 42   6    15    12    13    23  
 43   5    13    12    11    22  
 44   6    15    12    11    22  
 45   5    11    12    13    23  
 46   2    14    15    12    13  
 47   2    14    15    12    11  
 48   5    12    13     8    20  
 49   3    15    12    13     8  
 50   4     8    13    12    11  
 51   1     3    15    12    13  
 52   1     3    15    12    11  

Impropers

  1   3     2     1     6    16  
  2   3     1     2     3    17  
  3   1    15     3     2     4  
  4   3     3     4     5    18  
  5   3     4     5     6    19  
  6   4     1     6     5     7  
  7   3     9     8    13    20  
  8   3     9    10    11    21  
  9   3    10    11    12    22  
 10   1    15    12    11    13  
 11   3     8    13    12    23  
 12   2     3    15    12    14  
