HEADER,  DPET.mol  read w/ mol2lmp > atom_typing v1.5 / 4 July 2023 w/PCFF-IFF atom-types > all2lmp: v1.8 / 4 July 2023  Class: 2

38 atoms
40 bonds
62 angles
90 dihedrals
20 impropers

8 atom types
8 bond types
11 angle types
14 dihedral types
5 improper types

-5.193647368 5.786152632 xlo xhi
-6.419652632 3.874947368 ylo yhi
-5.684936842 3.548663158 zlo zhi

Masses

1   12.01115000  #  c=2  
2   12.01115000  #  cp   
3    1.00797000  #  ho   
4    1.00797000  #  hpan 
5   15.99940000  #  o=   
6   15.99940000  #  o_1  
7   15.99940000  #  oc   
8   15.99940000  #  oh   

Pair Coeffs  # lj/class2/coul/long

1         0.06400000      4.01000000 #  c=2  
2         0.06400000      4.01000000 #  cp   
3         0.01300000      1.09800000 #  ho   
4         0.02000000      2.30000000 #  hpan 
5         0.28000000      3.25000000 #  o=   
6         0.26700000      3.30000000 #  o_1  
7         0.24000000      3.53500000 #  oc   
8         0.24000000      3.53500000 #  oh   

Bond Coeffs  # class2

1         1.50000000    322.80000000      0.00000000      0.00000000 #  c=2         cp   
2         1.16000000   1112.00000000      0.00000000      0.00000000 #  c=2         o=   
3         1.35500000    312.91160000      0.00000000      0.00000000 #  c=2        o_1   
4         1.36800000    355.19880000      0.00000000      0.00000000 #  c=2         oh   
5         1.41700000    470.83610000   -627.61790000   1327.63450000 #  cp          cp   
6         1.09820000    372.82510000   -803.45260000    894.31730000 #  cp        hpan   
7         1.37680000    428.87980000   -738.23510000   1114.96550000 #  cp          oc   
8         0.96500000    532.50620000  -1282.90500000   2004.76580000 #  ho          oh   

Angle Coeffs  # class2

1       120.00000000     80.00000000      0.00000000      0.00000000 #  c=2        cp         cp   
2       109.00000000     58.50000000      0.00000000      0.00000000 #  c=2        oh         ho   
3       120.00000000     36.20000000      0.00000000      0.00000000 #  cp        c=2         cp   
4       120.00000000     68.00000000      0.00000000      0.00000000 #  cp        c=2         o=   
5       120.00000000     68.00000000      0.00000000      0.00000000 #  cp        c=2        o_1   
6       120.00000000     68.00000000      0.00000000      0.00000000 #  cp        c=2         oh   
7       118.90000000     61.02260000    -34.99310000      0.00000000 #  cp         cp         cp   
8       117.94000000     35.15580000    -12.46820000      0.00000000 #  cp         cp       hpan   
9       123.42000000     73.67810000    -21.67870000      0.00000000 #  cp         cp         oc   
10      109.50000000     60.00000000      0.00000000      0.00000000 #  cp         oc         cp   
11      120.00000000     68.00000000      0.00000000      0.00000000 #  o=        c=2         oh   

Dihedral Coeffs  # class2

1         0.00000000      0.00000000      0.50000000      0.00000000      0.00000000      0.00000000 #  cp        c=2        cp         cp   
2         0.00000000      0.00000000      0.90000000      0.00000000      0.00000000      0.00000000 #  cp        c=2        oh         ho   
3         0.00000000      0.00000000      0.50000000      0.00000000      0.00000000      0.00000000 #  o=        c=2        cp         cp   
4         0.00000000      0.00000000      0.50000000      0.00000000      0.00000000      0.00000000 #  o_1       c=2        cp         cp   
5         0.00000000      0.00000000      0.50000000      0.00000000      0.00000000      0.00000000 #  oh        c=2        cp         cp   
6         0.00000000      0.00000000      3.00000000      0.00000000      0.00000000      0.00000000 #  c=2        cp        cp         cp   
7         8.36670000      0.00000000      1.19320000      0.00000000      0.00000000      0.00000000 #  cp         cp        cp         cp   
8         0.00000000      0.00000000      3.96610000      0.00000000      0.00000000      0.00000000 #  cp         cp        cp       hpan   
9         0.00000000      0.00000000      3.00000000      0.00000000      0.00000000      0.00000000 #  c=2        cp        cp       hpan   
10        0.00000000      0.00000000      1.87690000      0.00000000      0.00000000      0.00000000 #  hpan       cp        cp       hpan   
11        0.00000000      0.00000000      4.84980000      0.00000000      0.00000000      0.00000000 #  cp         cp        cp         oc   
12        0.00000000      0.00000000      1.72340000      0.00000000      0.00000000      0.00000000 #  hpan       cp        cp         oc   
13        0.00000000      0.00000000      1.80000000      0.00000000      0.00000000      0.00000000 #  cp         cp        oc         cp   
14        0.00000000      0.00000000      0.90000000      0.00000000      0.00000000      0.00000000 #  o=        c=2        oh         ho   

Improper Coeffs  # class2

1        10.00000000      0.00000000 #  c=2        cp        cp        cp      nb==3   
2         2.05680000      0.00000000 #  cp        c=2        cp       o_1      nb==3   
3         2.05680000      0.00000000 #  cp        c=2        o=        oh      nb==3   
4         4.89120000      0.00000000 #  cp         cp        cp       hpan     nb==3   
5        13.04210000      0.00000000 #  cp         cp        cp        oc      nb==3   

BondBond Coeffs  # class2

1         0.00000000      1.50000000      1.41700000 #  c=2        cp         cp   
2         0.00000000      1.36800000      0.96500000 #  c=2        oh         ho   
3         0.00000000      1.50000000      1.50000000 #  cp        c=2         cp   
4         0.00000000      1.50000000      1.16000000 #  cp        c=2         o=   
5         0.00000000      1.50000000      1.35500000 #  cp        c=2        o_1   
6         0.00000000      1.50000000      1.36800000 #  cp        c=2         oh   
7        68.28560000      1.41700000      1.41700000 #  cp         cp         cp   
8         1.07950000      1.41700000      1.09820000 #  cp         cp       hpan   
9        48.47540000      1.41700000      1.37680000 #  cp         cp         oc   
10        0.00000000      1.37680000      1.37680000 #  cp         oc         cp   
11        0.00000000      1.16000000      1.36800000 #  o=        c=2         oh   

BondAngle Coeffs  # class2

1         0.00000000      0.00000000      1.50000000      1.41700000 #  c=2        cp         cp   
2         0.00000000      0.00000000      1.36800000      0.96500000 #  c=2        oh         ho   
3         0.00000000      0.00000000      1.50000000      1.50000000 #  cp        c=2         cp   
4         0.00000000      0.00000000      1.50000000      1.16000000 #  cp        c=2         o=   
5         0.00000000      0.00000000      1.50000000      1.35500000 #  cp        c=2        o_1   
6         0.00000000      0.00000000      1.50000000      1.36800000 #  cp        c=2         oh   
7        28.87080000     28.87080000      1.41700000      1.41700000 #  cp         cp         cp   
8        20.00330000     24.21830000      1.41700000      1.09820000 #  cp         cp       hpan   
9        58.47900000    107.68060000      1.41700000      1.37680000 #  cp         cp         oc   
10        0.00000000      0.00000000      1.37680000      1.37680000 #  cp         oc         cp   
11        0.00000000      0.00000000      1.16000000      1.36800000 #  o=        c=2         oh   

AngleAngleTorsion Coeffs  # class2

1         0.00000000    120.00000000    120.00000000 #  cp        c=2        cp         cp   
2         0.00000000    120.00000000    109.00000000 #  cp        c=2        oh         ho   
3         0.00000000    120.00000000    120.00000000 #  o=        c=2        cp         cp   
4         0.00000000    120.00000000    120.00000000 #  o_1       c=2        cp         cp   
5         0.00000000    120.00000000    120.00000000 #  oh        c=2        cp         cp   
6         0.00000000    120.00000000    118.90000000 #  c=2        cp        cp         cp   
7         0.00000000    118.90000000    118.90000000 #  cp         cp        cp         cp   
8        -4.81410000    118.90000000    117.94000000 #  cp         cp        cp       hpan   
9         0.00000000    120.00000000    117.94000000 #  c=2        cp        cp       hpan   
10        0.35980000    117.94000000    117.94000000 #  hpan       cp        cp       hpan   
11      -21.02470000    118.90000000    123.42000000 #  cp         cp        cp         oc   
12        4.22960000    117.94000000    123.42000000 #  hpan       cp        cp         oc   
13        0.00000000    123.42000000    109.50000000 #  cp         cp        oc         cp   
14        0.00000000    120.00000000    109.00000000 #  o=        c=2        oh         ho   

EndBondTorsion Coeffs  # class2

1         0.00000000      0.00000000      0.00000000      0.00000000      0.00000000      0.00000000      1.50000000      1.41700000 #  cp        c=2        cp         cp   
2         0.00000000      0.00000000      0.00000000      0.00000000      0.00000000      0.00000000      1.50000000      0.96500000 #  cp        c=2        oh         ho   
3         0.00000000      0.00000000      0.00000000      0.00000000      0.00000000      0.00000000      1.16000000      1.41700000 #  o=        c=2        cp         cp   
4         0.00000000      0.00000000      0.00000000      0.00000000      0.00000000      0.00000000      1.35500000      1.41700000 #  o_1       c=2        cp         cp   
5         0.00000000      0.00000000      0.00000000      0.00000000      0.00000000      0.00000000      1.36800000      1.41700000 #  oh        c=2        cp         cp   
6         0.00000000      0.00000000      0.00000000      0.00000000      0.00000000      0.00000000      1.50000000      1.41700000 #  c=2        cp        cp         cp   
7        -0.11850000      6.32040000      0.00000000     -0.11850000      6.32040000      0.00000000      1.41700000      1.41700000 #  cp         cp        cp         cp   
8         0.00000000     -6.89580000      0.00000000      0.00000000     -0.46690000      0.00000000      1.41700000      1.09820000 #  cp         cp        cp       hpan   
9         0.00000000      0.00000000      0.00000000      0.00000000      0.00000000      0.00000000      1.50000000      1.09820000 #  c=2        cp        cp       hpan   
10        0.00000000     -0.68900000      0.00000000      0.00000000     -0.68900000      0.00000000      1.09820000      1.09820000 #  hpan       cp        cp       hpan   
11        0.00000000      0.26550000      0.00000000      0.00000000      4.89050000      0.00000000      1.41700000      1.37680000 #  cp         cp        cp         oc   
12        0.00000000     -1.58670000      0.00000000      0.00000000      4.26410000      0.00000000      1.09820000      1.37680000 #  hpan       cp        cp         oc   
13        0.00000000      0.00000000      0.00000000      0.00000000      0.00000000      0.00000000      1.41700000      1.37680000 #  cp         cp        oc         cp   
14        0.00000000      0.00000000      0.00000000      0.00000000      0.00000000      0.00000000      1.16000000      0.96500000 #  o=        c=2        oh         ho   

MiddleBondTorsion Coeffs  # class2

1         0.00000000      0.00000000      0.00000000      1.50000000 #  cp        c=2        cp         cp   
2         0.00000000      0.00000000      0.00000000      1.36800000 #  cp        c=2        oh         ho   
3         0.00000000      0.00000000      0.00000000      1.50000000 #  o=        c=2        cp         cp   
4         0.00000000      0.00000000      0.00000000      1.50000000 #  o_1       c=2        cp         cp   
5         0.00000000      0.00000000      0.00000000      1.50000000 #  oh        c=2        cp         cp   
6         0.00000000      0.00000000      0.00000000      1.41700000 #  c=2        cp        cp         cp   
7        27.59890000     -2.31200000      0.00000000      1.41700000 #  cp         cp        cp         cp   
8         0.00000000     -1.15210000      0.00000000      1.41700000 #  cp         cp        cp       hpan   
9         0.00000000      0.00000000      0.00000000      1.41700000 #  c=2        cp        cp       hpan   
10        0.00000000      4.82280000      0.00000000      1.41700000 #  hpan       cp        cp       hpan   
11        0.00000000      4.82550000      0.00000000      1.41700000 #  cp         cp        cp         oc   
12        0.00000000      5.54320000      0.00000000      1.41700000 #  hpan       cp        cp         oc   
13        0.00000000      0.00000000      0.00000000      1.37680000 #  cp         cp        oc         cp   
14        0.00000000      0.00000000      0.00000000      1.36800000 #  o=        c=2        oh         ho   

BondBond13 Coeffs  # class2

1         0.00000000      1.50000000      1.41700000 #  cp        c=2        cp         cp   
2         0.00000000      1.50000000      0.96500000 #  cp        c=2        oh         ho   
3         0.00000000      1.16000000      1.41700000 #  o=        c=2        cp         cp   
4         0.00000000      1.35500000      1.41700000 #  o_1       c=2        cp         cp   
5         0.00000000      1.36800000      1.41700000 #  oh        c=2        cp         cp   
6         0.00000000      1.50000000      1.41700000 #  c=2        cp        cp         cp   
7        53.00000000      1.41700000      1.41700000 #  cp         cp        cp         cp   
8        -6.27410000      1.41700000      1.09820000 #  cp         cp        cp       hpan   
9         0.00000000      1.50000000      1.09820000 #  c=2        cp        cp       hpan   
10       -1.70770000      1.09820000      1.09820000 #  hpan       cp        cp       hpan   
11       -2.24360000      1.41700000      1.37680000 #  cp         cp        cp         oc   
12        2.05170000      1.09820000      1.37680000 #  hpan       cp        cp         oc   
13        0.00000000      1.41700000      1.37680000 #  cp         cp        oc         cp   
14        0.00000000      1.16000000      0.96500000 #  o=        c=2        oh         ho   

AngleTorsion Coeffs  # class2

1         0.00000000      0.00000000      0.00000000      0.00000000      0.00000000      0.00000000    120.00000000    120.00000000 #  cp        c=2        cp         cp   
2         0.00000000      0.00000000      0.00000000      0.00000000      0.00000000      0.00000000    120.00000000    109.00000000 #  cp        c=2        oh         ho   
3         0.00000000      0.00000000      0.00000000      0.00000000      0.00000000      0.00000000    120.00000000    120.00000000 #  o=        c=2        cp         cp   
4         0.00000000      0.00000000      0.00000000      0.00000000      0.00000000      0.00000000    120.00000000    120.00000000 #  o_1       c=2        cp         cp   
5         0.00000000      0.00000000      0.00000000      0.00000000      0.00000000      0.00000000    120.00000000    120.00000000 #  oh        c=2        cp         cp   
6         0.00000000      0.00000000      0.00000000      0.00000000      0.00000000      0.00000000    120.00000000    118.90000000 #  c=2        cp        cp         cp   
7         1.97670000      1.02390000      0.00000000      1.97670000      1.02390000      0.00000000    118.90000000    118.90000000 #  cp         cp        cp         cp   
8         0.00000000      2.50140000      0.00000000      0.00000000      2.71470000      0.00000000    118.90000000    117.94000000 #  cp         cp        cp       hpan   
9         0.00000000      0.00000000      0.00000000      0.00000000      0.00000000      0.00000000    120.00000000    117.94000000 #  c=2        cp        cp       hpan   
10        0.00000000      2.45010000      0.00000000      0.00000000      2.45010000      0.00000000    117.94000000    117.94000000 #  hpan       cp        cp       hpan   
11        0.00000000     10.01550000      0.00000000      0.00000000      1.74040000      0.00000000    118.90000000    123.42000000 #  cp         cp        cp         oc   
12        0.00000000      1.87290000      0.00000000      0.00000000      2.57060000      0.00000000    117.94000000    123.42000000 #  hpan       cp        cp         oc   
13        0.00000000      0.00000000      0.00000000      0.00000000      0.00000000      0.00000000    123.42000000    109.50000000 #  cp         cp        oc         cp   
14        0.00000000      0.00000000      0.00000000      0.00000000      0.00000000      0.00000000    120.00000000    109.00000000 #  o=        c=2        oh         ho   

AngleAngle Coeffs  # class2

1         0.00000000      0.00000000      0.00000000    120.00000000    118.90000000    120.00000000 #  c=2        cp        cp        cp      nb==3   
2         0.00000000      0.00000000      0.00000000    120.00000000    120.00000000    120.00000000 #  cp        c=2        cp       o_1      nb==3   
3         0.00000000      0.00000000      0.00000000    120.00000000    120.00000000    120.00000000 #  cp        c=2        o=        oh      nb==3   
4         0.00000000      0.00000000      0.00000000    118.90000000    117.94000000    117.94000000 #  cp         cp        cp       hpan     nb==3   
5         0.00000000      0.00000000      0.00000000    118.90000000    123.42000000    123.42000000 #  cp         cp        cp        oc      nb==3   

Atoms # full

 1  1  2   -0.126800   -1.371547368    -2.623352632     1.827763158      0    0    0 #  cp/C
 2  1  2   -0.126800   -0.836847368    -3.867952632     2.160263158      0    0    0 #  cp/C
 3  1  2   -0.126800   -1.685247368    -4.938152632     2.444063158      0    0    0 #  cp/C
 4  1  2   -0.126800   -3.068247368    -4.763652632     2.395463158      0    0    0 #  cp/C
 5  1  2   -0.126800   -3.602947368    -3.519052632     2.063063158      0    0    0 #  cp/C
 6  1  2    0.026500   -2.754547368    -2.448852632     1.779163158      0    0    0 #  cp/C
 7  1  7   -0.053000   -3.273947368    -1.239652632     1.456163158      0    0    0 #  oc/O
 8  1  2   -0.126800   -2.074447368     0.704647368     2.128763158      0    0    0 #  cp/C
 9  1  2    0.026500   -2.308147368    -0.320952632     1.212863158      0    0    0 #  cp/C
10  1  2   -0.126800   -1.547447368    -0.400952632     0.046363158      0    0    0 #  cp/C
11  1  2   -0.126800   -0.553347368     0.544847368    -0.204236842      0    0    0 #  cp/C
12  1  2    0.000000   -0.319847368     1.570547368     0.711663158      0    0    0 #  cp/C
13  1  2   -0.126800   -1.080347368     1.650447368     1.878163158      0    0    0 #  cp/C
14  1  1    0.358300    0.643052632     2.486647368     0.468963158      0    0    0 #  c=2/C
15  1  6   -0.358300    0.845252632     3.374947368     1.262163158      0    0    0 #  o_1/O
16  1  2   -0.126800    2.764752632     2.562947368    -0.602436842      0    0    0 #  cp/C
17  1  2    0.000000    1.379652632     2.409247368    -0.660936842      0    0    0 #  cp/C
18  1  2   -0.126800    0.755152632     2.175547368    -1.886036842      0    0    0 #  cp/C
19  1  2   -0.126800    1.515652632     2.095747368    -3.052536842      0    0    0 #  cp/C
20  1  2    0.000000    2.900652632     2.249647368    -2.994036842      0    0    0 #  cp/C
21  1  2   -0.126800    3.525252632     2.483247368    -1.768936842      0    0    0 #  cp/C
22  1  1    0.146500    3.637252632     2.172447368    -4.123936842      0    0    0 #  c=2/C
23  1  8   -0.450600    4.965952632     2.319947368    -4.067736842      0    0    0 #  oh/O
24  1  5   -0.120000    3.096352632     1.970147368    -5.184936842      0    0    0 #  o=/O
25  1  3    0.424100    5.286152632     2.228647368    -4.980936842      0    0    0 #  ho/H
26  1  4    0.126800   -0.702547368    -1.779352632     1.603863158      0    0    0 #  hpan/H
27  1  4    0.126800    0.253852632    -4.005452632     2.198663158      0    0    0 #  hpan/H
28  1  4    0.126800   -1.263647368    -5.919652632     2.706163158      0    0    0 #  hpan/H
29  1  4    0.126800   -3.737247368    -5.607552632     2.619263158      0    0    0 #  hpan/H
30  1  4    0.126800   -4.693647368    -3.381452632     2.024763158      0    0    0 #  hpan/H
31  1  4    0.126800   -2.674247368     0.767647368     3.048663158      0    0    0 #  hpan/H
32  1  4    0.126800   -1.731647368    -1.209852632    -0.676036842      0    0    0 #  hpan/H
33  1  4    0.126800    0.046452632     0.481847368    -1.124136842      0    0    0 #  hpan/H
34  1  4    0.126800   -0.896147368     2.459347368     2.600563158      0    0    0 #  hpan/H
35  1  4    0.126800    3.257252632     2.747147368     0.363763158      0    0    0 #  hpan/H
36  1  4    0.126800   -0.337247368     2.054247368    -1.932336842      0    0    0 #  hpan/H
37  1  4    0.126800    1.023052632     1.911547368    -4.018736842      0    0    0 #  hpan/H
38  1  4    0.126800    4.617552632     2.604447368    -1.722636842      0    0    0 #  hpan/H

Bonds

  1   5     1     2  
  2   5     1     6  
  3   6     1    26  
  4   5     2     3  
  5   6     2    27  
  6   5     3     4  
  7   6     3    28  
  8   5     4     5  
  9   6     4    29  
 10   5     5     6  
 11   6     5    30  
 12   7     6     7  
 13   7     9     7  
 14   5     8     9  
 15   5     8    13  
 16   6     8    31  
 17   5     9    10  
 18   5    10    11  
 19   6    10    32  
 20   5    11    12  
 21   6    11    33  
 22   5    12    13  
 23   1    14    12  
 24   6    13    34  
 25   3    14    15  
 26   1    14    17  
 27   5    16    17  
 28   5    16    21  
 29   6    16    35  
 30   5    17    18  
 31   5    18    19  
 32   6    18    36  
 33   5    19    20  
 34   6    19    37  
 35   5    20    21  
 36   1    22    20  
 37   6    21    38  
 38   4    22    23  
 39   2    22    24  
 40   8    25    23  

Angles

  1   7     2     1     6  
  2   8     6     1    26  
  3   8     2     1    26  
  4   8     3     2    27  
  5   7     1     2     3  
  6   8     1     2    27  
  7   8     2     3    28  
  8   8     4     3    28  
  9   7     2     3     4  
 10   8     5     4    29  
 11   7     3     4     5  
 12   8     3     4    29  
 13   7     4     5     6  
 14   8     4     5    30  
 15   8     6     5    30  
 16   9     5     6     7  
 17   7     1     6     5  
 18   9     1     6     7  
 19   10    6     7     9  
 20   8    13     8    31  
 21   8     9     8    31  
 22   7     9     8    13  
 23   7     8     9    10  
 24   9     8     9     7  
 25   9    10     9     7  
 26   7     9    10    11  
 27   8     9    10    32  
 28   8    11    10    32  
 29   7    10    11    12  
 30   8    10    11    33  
 31   8    12    11    33  
 32   7    11    12    13  
 33   1    14    12    13  
 34   1    14    12    11  
 35   8    12    13    34  
 36   8     8    13    34  
 37   7     8    13    12  
 38   5    12    14    15  
 39   5    17    14    15  
 40   3    12    14    17  
 41   8    21    16    35  
 42   8    17    16    35  
 43   7    17    16    21  
 44   1    14    17    18  
 45   1    14    17    16  
 46   7    16    17    18  
 47   8    19    18    36  
 48   7    17    18    19  
 49   8    17    18    36  
 50   8    20    19    37  
 51   7    18    19    20  
 52   8    18    19    37  
 53   7    19    20    21  
 54   1    22    20    21  
 55   1    22    20    19  
 56   7    16    21    20  
 57   8    16    21    38  
 58   8    20    21    38  
 59   11   24    22    23  
 60   6    20    22    23  
 61   4    20    22    24  
 62   2    22    23    25  

Dihedrals

  1   10   26     1     2    27  
  2   7     2     1     6     5  
  3   11    2     1     6     7  
  4   8     6     1     2    27  
  5   8     3     2     1    26  
  6   10   27     2     3    28  
  7   7     1     2     3     4  
  8   7     3     2     1     6  
  9   8     1     2     3    28  
 10   8     2     3     4    29  
 11   8     4     3     2    27  
 12   7     2     3     4     5  
 13   10   28     3     4    29  
 14   7     3     4     5     6  
 15   10   29     4     5    30  
 16   8     5     4     3    28  
 17   8     3     4     5    30  
 18   8     6     5     4    29  
 19   11    4     5     6     7  
 20   13    5     6     7     9  
 21   8     5     6     1    26  
 22   12   30     5     6     7  
 23   13    1     6     7     9  
 24   12   26     1     6     7  
 25   8     1     6     5    30  
 26   7     1     6     5     4  
 27   13    8     9     7     6  
 28   13   10     9     7     6  
 29   10   31     8    13    34  
 30   7     9     8    13    12  
 31   8     9     8    13    34  
 32   7     8     9    10    11  
 33   11   11    10     9     7  
 34   7    10     9     8    13  
 35   8    10     9     8    31  
 36   11   13     8     9     7  
 37   12   31     8     9     7  
 38   8     8     9    10    32  
 39   12   32    10     9     7  
 40   10   32    10    11    33  
 41   8     9    10    11    33  
 42   7     9    10    11    12  
 43   7    10    11    12    13  
 44   6    14    12    11    10  
 45   8    12    11    10    32  
 46   4    15    14    12    11  
 47   4    15    14    12    13  
 48   9    14    12    13    34  
 49   8    11    12    13    34  
 50   1    17    14    12    11  
 51   1    17    14    12    13  
 52   9    14    12    11    33  
 53   8    13    12    11    33  
 54   8    12    13     8    31  
 55   6    14    12    13     8  
 56   7     8    13    12    11  
 57   4    15    14    17    18  
 58   1    12    14    17    18  
 59   4    15    14    17    16  
 60   1    12    14    17    16  
 61   7    17    16    21    20  
 62   8    17    16    21    38  
 63   10   35    16    21    38  
 64   7    16    17    18    19  
 65   8    18    17    16    35  
 66   9    14    17    18    36  
 67   7    18    17    16    21  
 68   8    16    17    18    36  
 69   9    14    17    16    35  
 70   6    14    17    18    19  
 71   6    14    17    16    21  
 72   7    17    18    19    20  
 73   8    17    18    19    37  
 74   10   36    18    19    37  
 75   7    18    19    20    21  
 76   8    20    19    18    36  
 77   6    22    20    19    18  
 78   8    19    20    21    38  
 79   5    23    22    20    19  
 80   9    22    20    19    37  
 81   3    24    22    20    21  
 82   9    22    20    21    38  
 83   8    21    20    19    37  
 84   5    23    22    20    21  
 85   3    24    22    20    19  
 86   6    22    20    21    16  
 87   7    16    21    20    19  
 88   8    20    21    16    35  
 89   14   24    22    23    25  
 90   2    20    22    23    25  

Impropers

  1   4     2     1     6    26  
  2   4     1     2     3    27  
  3   4     2     3     4    28  
  4   4     3     4     5    29  
  5   4     4     5     6    30  
  6   5     1     6     5     7  
  7   4     9     8    13    31  
  8   5     8     9    10     7  
  9   4     9    10    11    32  
 10   4    10    11    12    33  
 11   1    14    12    11    13  
 12   4     8    13    12    34  
 13   2    12    14    17    15  
 14   4    17    16    21    35  
 15   1    14    17    16    18  
 16   4    17    18    19    36  
 17   4    18    19    20    37  
 18   1    22    20    19    21  
 19   4    16    21    20    38  
 20   3    20    22    24    23  
