HEADER,  L10.mol2  read w/ mol2SYBYL2lmp > atom_typing v1.4 / 2 May 2023 w/PCFF-IFF atom-types > all2lmp: v1.7 / 2 May 2023  Class: 2

32 atoms
33 bonds
52 angles
75 dihedrals
20 impropers

7 atom types
9 bond types
12 angle types
14 dihedral types
8 improper types

-4.766406250 3.792093750 xlo xhi
-4.756540625 5.894259375 ylo yhi
-2.657343750 3.590856250 zlo zhi

Masses

1   12.01115000  #  c1   
2   12.01115000  #  c3   
3   12.01115000  #  cp   
4   12.01115000  #  ct   
5    1.00797000  #  hpan 
6   14.00670000  #  nt   
7   15.99940000  #  oc   

Pair Coeffs  # lj/class2/coul/long

1         0.05400000      4.01000000 #  c1   
2         0.05400000      3.90000000 #  c3   
3         0.06400000      4.01000000 #  cp   
4         0.06400000      4.01000000 #  ct   
5         0.02000000      2.30000000 #  hpan 
6         0.06500000      3.57000000 #  nt   
7         0.24000000      3.53500000 #  oc   

Bond Coeffs  # class2

1         1.53000000    299.67000000   -501.77000000    679.81000000 #  c1          c3   
2         1.50100000    321.90210000   -521.82080000    572.16280000 #  c1          cp   
3         1.10100000    345.00000000   -691.89000000    844.60000000 #  c1        hpan   
4         1.10100000    345.00000000   -691.89000000    844.60000000 #  c3        hpan   
5         1.41700000    470.83610000   -627.61790000   1327.63450000 #  cp          cp   
6         1.09820000    372.82510000   -803.45260000    894.31730000 #  cp        hpan   
7         1.37680000    428.87980000   -738.23510000   1114.96550000 #  cp          oc   
8         1.15800000    880.00000000      0.00000000      0.00000000 #  ct          nt   
9         1.31300000    367.81640000      0.00000000      0.00000000 #  ct          oc   

Angle Coeffs  # class2

1       110.77000000     41.45300000    -10.60400000      5.12900000 #  c1         c3       hpan   
2       120.05000000     44.71480000    -22.73520000      0.00000000 #  c1         cp         cp   
3       108.40000000     43.95940000     -8.39240000     -9.33790000 #  c3         c1         cp   
4       110.77000000     41.45300000    -10.60400000      5.12900000 #  c3         c1       hpan   
5       111.00000000     44.32340000     -9.44540000      0.00000000 #  cp         c1         cp   
6       111.00000000     44.32340000     -9.44540000      0.00000000 #  cp         c1       hpan   
7       118.90000000     61.02260000    -34.99310000      0.00000000 #  cp         cp         cp   
8       117.94000000     35.15580000    -12.46820000      0.00000000 #  cp         cp       hpan   
9       123.42000000     73.67810000    -21.67870000      0.00000000 #  cp         cp         oc   
10      109.50000000     60.00000000      0.00000000      0.00000000 #  cp         oc         ct   
11      107.66000000     39.64100000    -12.92100000     -2.43180000 #  hpan       c3       hpan   
12      180.00000000    200.00000000      0.00000000      0.00000000 #  nt         ct         oc   

Dihedral Coeffs  # class2

1        -0.14320000      0.00000000      0.06170000      0.00000000     -0.10830000      0.00000000 #  hpan       c1        c3       hpan   
2        -0.02280000      0.00000000      0.02800000      0.00000000     -0.18630000      0.00000000 #  cp         c1        c3       hpan   
3        -0.28020000      0.00000000     -0.06780000      0.00000000     -0.01220000      0.00000000 #  cp         c1        cp         cp   
4        -0.28020000      0.00000000     -0.06780000      0.00000000     -0.01220000      0.00000000 #  c3         c1        cp         cp   
5        -0.28010000      0.00000000     -0.06780000      0.00000000     -0.01220000      0.00000000 #  hpan       c1        cp         cp   
6         8.36670000      0.00000000      1.19320000      0.00000000      0.00000000      0.00000000 #  cp         cp        cp         cp   
7         0.00000000      0.00000000      4.40720000      0.00000000      0.00000000      0.00000000 #  c1         cp        cp         cp   
8         0.00000000      0.00000000      3.96610000      0.00000000      0.00000000      0.00000000 #  cp         cp        cp       hpan   
9         0.00000000      0.00000000      1.55900000      0.00000000      0.00000000      0.00000000 #  c1         cp        cp       hpan   
10        0.00000000      0.00000000      1.87690000      0.00000000      0.00000000      0.00000000 #  hpan       cp        cp       hpan   
11        0.00000000      0.00000000      4.84980000      0.00000000      0.00000000      0.00000000 #  cp         cp        cp         oc   
12        0.00000000      0.00000000      1.72340000      0.00000000      0.00000000      0.00000000 #  hpan       cp        cp         oc   
13        0.00000000      0.00000000      1.80000000      0.00000000      0.00000000      0.00000000 #  cp         cp        oc         ct   
14        0.00000000      0.00000000      0.00000000      0.00000000      0.00000000      0.00000000 #  nt         ct        oc         cp   

Improper Coeffs  # class2

1         7.81530000      0.00000000 #  c1         cp        cp        cp      nb==3   
2         4.89120000      0.00000000 #  cp         cp        cp       hpan     nb==3   
3        13.04210000      0.00000000 #  cp         cp        cp        oc      nb==3   
4         0.00000000      0.00000000 #  c1         c3       hpan      hpan     nb!=3   
5         0.00000000      0.00000000 #  c3         c1        cp        cp      nb!=3   
6         0.00000000      0.00000000 #  c3         c1        cp       hpan     nb!=3   
7         0.00000000      0.00000000 #  cp         c1        cp       hpan     nb!=3   
8         0.00000000      0.00000000 #  hpan       c3       hpan      hpan     nb!=3   

BondBond Coeffs  # class2

1         3.38720000      1.53000000      1.10100000 #  c1         c3       hpan   
2        12.06760000      1.50100000      1.41700000 #  c1         cp         cp   
3         0.00000000      1.53000000      1.50100000 #  c3         c1         cp   
4         3.38720000      1.53000000      1.10100000 #  c3         c1       hpan   
5         0.00000000      1.50100000      1.50100000 #  cp         c1         cp   
6         2.91680000      1.50100000      1.10100000 #  cp         c1       hpan   
7        68.28560000      1.41700000      1.41700000 #  cp         cp         cp   
8         1.07950000      1.41700000      1.09820000 #  cp         cp       hpan   
9        48.47540000      1.41700000      1.37680000 #  cp         cp         oc   
10        0.00000000      1.37680000      1.31300000 #  cp         oc         ct   
11        5.33160000      1.10100000      1.10100000 #  hpan       c3       hpan   
12        0.00000000      1.15800000      1.31300000 #  nt         ct         oc   

BondAngle Coeffs  # class2

1        20.75400000     11.42100000      1.53000000      1.10100000 #  c1         c3       hpan   
2        47.05790000     31.07710000      1.50100000      1.41700000 #  c1         cp         cp   
3         0.00000000      0.00000000      1.53000000      1.50100000 #  c3         c1         cp   
4        20.75400000     11.42100000      1.53000000      1.10100000 #  c3         c1       hpan   
5         0.00000000      0.00000000      1.50100000      1.50100000 #  cp         c1         cp   
6        26.46080000     11.77170000      1.50100000      1.10100000 #  cp         c1       hpan   
7        28.87080000     28.87080000      1.41700000      1.41700000 #  cp         cp         cp   
8        20.00330000     24.21830000      1.41700000      1.09820000 #  cp         cp       hpan   
9        58.47900000    107.68060000      1.41700000      1.37680000 #  cp         cp         oc   
10        0.00000000      0.00000000      1.37680000      1.31300000 #  cp         oc         ct   
11       18.10300000     18.10300000      1.10100000      1.10100000 #  hpan       c3       hpan   
12        0.00000000      0.00000000      1.15800000      1.31300000 #  nt         ct         oc   

AngleAngleTorsion Coeffs  # class2

1       -12.56400000    110.77000000    110.77000000 #  hpan       c1        c3       hpan   
2         0.00000000    108.40000000    110.77000000 #  cp         c1        c3       hpan   
3         0.00000000    111.00000000    120.05000000 #  cp         c1        cp         cp   
4         0.00000000    108.40000000    120.05000000 #  c3         c1        cp         cp   
5        -5.88880000    111.00000000    120.05000000 #  hpan       c1        cp         cp   
6         0.00000000    118.90000000    118.90000000 #  cp         cp        cp         cp   
7       -14.40970000    120.05000000    118.90000000 #  c1         cp        cp         cp   
8        -4.81410000    118.90000000    117.94000000 #  cp         cp        cp       hpan   
9         4.44440000    120.05000000    117.94000000 #  c1         cp        cp       hpan   
10        0.35980000    117.94000000    117.94000000 #  hpan       cp        cp       hpan   
11      -21.02470000    118.90000000    123.42000000 #  cp         cp        cp         oc   
12        4.22960000    117.94000000    123.42000000 #  hpan       cp        cp         oc   
13        0.00000000    123.42000000    109.50000000 #  cp         cp        oc         ct   
14        0.00000000    180.00000000    109.50000000 #  nt         ct        oc         cp   

EndBondTorsion Coeffs  # class2

1         0.21300000      0.31200000      0.07770000      0.21300000      0.31200000      0.07770000      1.10100000      1.10100000 #  hpan       c1        c3       hpan   
2         0.00000000      0.00000000      0.00000000      0.00000000      0.00000000      0.00000000      1.50100000      1.10100000 #  cp         c1        c3       hpan   
3         0.00000000      0.00000000      0.00000000      0.00000000      0.00000000      0.00000000      1.50100000      1.41700000 #  cp         c1        cp         cp   
4         0.00000000      0.00000000      0.00000000      0.00000000      0.00000000      0.00000000      1.53000000      1.41700000 #  c3         c1        cp         cp   
5         1.39970000      0.77560000      0.00000000     -0.58350000      1.12200000      0.39780000      1.10100000      1.41700000 #  hpan       c1        cp         cp   
6        -0.11850000      6.32040000      0.00000000     -0.11850000      6.32040000      0.00000000      1.41700000      1.41700000 #  cp         cp        cp         cp   
7         0.00000000      0.24210000      0.00000000      0.00000000     -0.69180000      0.00000000      1.50100000      1.41700000 #  c1         cp        cp         cp   
8         0.00000000     -6.89580000      0.00000000      0.00000000     -0.46690000      0.00000000      1.41700000      1.09820000 #  cp         cp        cp       hpan   
9         0.00000000     -1.79700000      0.00000000      0.00000000     -0.48790000      0.00000000      1.50100000      1.09820000 #  c1         cp        cp       hpan   
10        0.00000000     -0.68900000      0.00000000      0.00000000     -0.68900000      0.00000000      1.09820000      1.09820000 #  hpan       cp        cp       hpan   
11        0.00000000      0.26550000      0.00000000      0.00000000      4.89050000      0.00000000      1.41700000      1.37680000 #  cp         cp        cp         oc   
12        0.00000000     -1.58670000      0.00000000      0.00000000      4.26410000      0.00000000      1.09820000      1.37680000 #  hpan       cp        cp         oc   
13        0.00000000      0.00000000      0.00000000      0.00000000      0.00000000      0.00000000      1.41700000      1.31300000 #  cp         cp        oc         ct   
14        0.00000000      0.00000000      0.00000000      0.00000000      0.00000000      0.00000000      1.15800000      1.37680000 #  nt         ct        oc         cp   

MiddleBondTorsion Coeffs  # class2

1       -14.26100000     -0.53220000     -0.48640000      1.53000000 #  hpan       c1        c3       hpan   
2         0.00000000      0.00000000      0.00000000      1.53000000 #  cp         c1        c3       hpan   
3         0.00000000      0.00000000      0.00000000      1.50100000 #  cp         c1        cp         cp   
4         0.00000000      0.00000000      0.00000000      1.50100000 #  c3         c1        cp         cp   
5        -5.56790000      1.40830000      0.30100000      1.50100000 #  hpan       c1        cp         cp   
6        27.59890000     -2.31200000      0.00000000      1.41700000 #  cp         cp        cp         cp   
7         0.00000000      9.17920000      0.00000000      1.41700000 #  c1         cp        cp         cp   
8         0.00000000     -1.15210000      0.00000000      1.41700000 #  cp         cp        cp       hpan   
9         0.00000000      3.94210000      0.00000000      1.41700000 #  c1         cp        cp       hpan   
10        0.00000000      4.82280000      0.00000000      1.41700000 #  hpan       cp        cp       hpan   
11        0.00000000      4.82550000      0.00000000      1.41700000 #  cp         cp        cp         oc   
12        0.00000000      5.54320000      0.00000000      1.41700000 #  hpan       cp        cp         oc   
13        0.00000000      0.00000000      0.00000000      1.37680000 #  cp         cp        oc         ct   
14        0.00000000      0.00000000      0.00000000      1.31300000 #  nt         ct        oc         cp   

BondBond13 Coeffs  # class2

1         0.00000000      1.10100000      1.10100000 #  hpan       c1        c3       hpan   
2         0.00000000      1.50100000      1.10100000 #  cp         c1        c3       hpan   
3         0.00000000      1.50100000      1.41700000 #  cp         c1        cp         cp   
4         0.00000000      1.53000000      1.41700000 #  c3         c1        cp         cp   
5        -3.48260000      1.10100000      1.41700000 #  hpan       c1        cp         cp   
6        53.00000000      1.41700000      1.41700000 #  cp         cp        cp         cp   
7         2.50850000      1.50100000      1.41700000 #  c1         cp        cp         cp   
8        -6.27410000      1.41700000      1.09820000 #  cp         cp        cp       hpan   
9         0.87430000      1.50100000      1.09820000 #  c1         cp        cp       hpan   
10       -1.70770000      1.09820000      1.09820000 #  hpan       cp        cp       hpan   
11       -2.24360000      1.41700000      1.37680000 #  cp         cp        cp         oc   
12        2.05170000      1.09820000      1.37680000 #  hpan       cp        cp         oc   
13        0.00000000      1.41700000      1.31300000 #  cp         cp        oc         ct   
14        0.00000000      1.15800000      1.37680000 #  nt         ct        oc         cp   

AngleTorsion Coeffs  # class2

1        -0.80850000      0.55690000     -0.24660000     -0.80850000      0.55690000     -0.24660000    110.77000000    110.77000000 #  hpan       c1        c3       hpan   
2         0.00000000      0.00000000      0.00000000      0.00000000      0.00000000      0.00000000    108.40000000    110.77000000 #  cp         c1        c3       hpan   
3         0.00000000      0.00000000      0.00000000      0.00000000      0.00000000      0.00000000    111.00000000    120.05000000 #  cp         c1        cp         cp   
4         0.00000000      0.00000000      0.00000000      0.00000000      0.00000000      0.00000000    108.40000000    120.05000000 #  c3         c1        cp         cp   
5         4.62660000      0.16320000      0.04610000      0.22510000      0.65480000      0.12370000    111.00000000    120.05000000 #  hpan       c1        cp         cp   
6         1.97670000      1.02390000      0.00000000      1.97670000      1.02390000      0.00000000    118.90000000    118.90000000 #  cp         cp        cp         cp   
7         0.00000000     -4.46830000      0.00000000      0.00000000      3.89870000      0.00000000    120.05000000    118.90000000 #  c1         cp        cp         cp   
8         0.00000000      2.50140000      0.00000000      0.00000000      2.71470000      0.00000000    118.90000000    117.94000000 #  cp         cp        cp       hpan   
9         0.00000000     -0.12420000      0.00000000      0.00000000      3.46010000      0.00000000    120.05000000    117.94000000 #  c1         cp        cp       hpan   
10        0.00000000      2.45010000      0.00000000      0.00000000      2.45010000      0.00000000    117.94000000    117.94000000 #  hpan       cp        cp       hpan   
11        0.00000000     10.01550000      0.00000000      0.00000000      1.74040000      0.00000000    118.90000000    123.42000000 #  cp         cp        cp         oc   
12        0.00000000      1.87290000      0.00000000      0.00000000      2.57060000      0.00000000    117.94000000    123.42000000 #  hpan       cp        cp         oc   
13        0.00000000      0.00000000      0.00000000      0.00000000      0.00000000      0.00000000    123.42000000    109.50000000 #  cp         cp        oc         ct   
14        0.00000000      0.00000000      0.00000000      0.00000000      0.00000000      0.00000000    180.00000000    109.50000000 #  nt         ct        oc         cp   

AngleAngle Coeffs  # class2

1         0.00000000      0.00000000      0.00000000    120.05000000    118.90000000    120.05000000 #  c1         cp        cp        cp      nb==3   
2         0.00000000      0.00000000      0.00000000    118.90000000    117.94000000    117.94000000 #  cp         cp        cp       hpan     nb==3   
3         0.00000000      0.00000000      0.00000000    118.90000000    123.42000000    123.42000000 #  cp         cp        cp        oc      nb==3   
4         0.27380000     -0.48250000      0.27380000    110.77000000    110.77000000    107.66000000 #  c1         c3       hpan      hpan     nb!=3   
5         0.00000000      0.00000000      0.00000000    108.40000000    111.00000000    108.40000000 #  c3         c1        cp        cp      nb!=3   
6         2.04030000     -1.82020000      1.08270000    108.40000000    110.77000000    111.00000000 #  c3         c1        cp       hpan     nb!=3   
7         0.00000000      0.00000000      0.00000000    111.00000000    111.00000000    111.00000000 #  cp         c1        cp       hpan     nb!=3   
8        -0.31570000     -0.31570000     -0.31570000    107.66000000    107.66000000    107.66000000 #  hpan       c3       hpan      hpan     nb!=3   

Atoms # full

 1  1  1   -0.053000    1.145693750    -0.126840625    -1.079543750      0    0    0 #  c1/C
 2  1  3    0.000000    0.094693750    -1.218540625    -0.962343750      0    0    0 #  cp/C
 3  1  3   -0.126800    0.305693750    -2.383740625    -0.325543750      0    0    0 #  cp/C
 4  1  3   -0.126800   -0.659206250    -3.312640625    -0.239943750      0    0    0 #  cp/C
 5  1  3    0.026500   -1.877506250    -3.124740625    -0.779543750      0    0    0 #  cp/C
 6  1  3   -0.126800   -2.083306250    -1.956040625    -1.413643750      0    0    0 #  cp/C
 7  1  3   -0.126800   -1.122206250    -1.024240625    -1.501843750      0    0    0 #  cp/C
 8  1  7   -0.094000   -2.857706250    -4.073840625    -0.687643750      0    0    0 #  oc/O
 9  1  4    0.187900   -3.635006250    -3.860840625     0.475856250      0    0    0 #  ct/C
10  1  6   -0.120400   -4.266406250    -3.677540625     1.431556250      0    0    0 #  nt/N
11  1  3    0.000000    0.735593750     1.055759375    -0.219343750      0    0    0 #  cp/C
12  1  3   -0.126800    0.514893750     0.907859375     1.098356250      0    0    0 #  cp/C
13  1  3   -0.126800    0.154493750     1.951159375     1.860856250      0    0    0 #  cp/C
14  1  3    0.026500    0.002293750     3.185359375     1.345956250      0    0    0 #  cp/C
15  1  3   -0.126800    0.226693750     3.324059375     0.026156250      0    0    0 #  cp/C
16  1  3   -0.126800    0.587093750     2.285059375    -0.742643750      0    0    0 #  cp/C
17  1  7   -0.094000   -0.364806250     4.247059375     2.125956250      0    0    0 #  oc/O
18  1  4    0.187900    0.782793750     4.880959375     2.659056250      0    0    0 #  ct/C
19  1  6   -0.120400    1.729293750     5.394259375     3.090856250      0    0    0 #  nt/N
20  1  2   -0.159000    2.592593750    -0.535440625    -0.758043750      0    0    0 #  c3/C
21  1  5    0.053000    1.149693750     0.176159375    -2.157343750      0    0    0 #  hpan/H
22  1  5    0.126800    1.276093750    -2.601640625     0.146256250      0    0    0 #  hpan/H
23  1  5    0.126800   -0.449206250    -4.256540625     0.291656250      0    0    0 #  hpan/H
24  1  5    0.126800   -3.068006250    -1.757340625    -1.869743750      0    0    0 #  hpan/H
25  1  5    0.126800   -1.342506250    -0.079640625    -2.027343750      0    0    0 #  hpan/H
26  1  5    0.126800    0.628793750    -0.083140625     1.567856250      0    0    0 #  hpan/H
27  1  5    0.126800   -0.020106250     1.792859375     2.938756250      0    0    0 #  hpan/H
28  1  5    0.126800    0.112793750     4.319259375    -0.436443750      0    0    0 #  hpan/H
29  1  5    0.126800    0.761693750     2.452559375    -1.818243750      0    0    0 #  hpan/H
30  1  5    0.053000    3.292093750     0.309059375    -0.957843750      0    0    0 #  hpan/H
31  1  5    0.053000    2.730693750    -0.817940625     0.309556250      0    0    0 #  hpan/H
32  1  5    0.053000    2.922293750    -1.390740625    -1.391643750      0    0    0 #  hpan/H

Bonds

  1   2     1     2  
  2   2     1    11  
  3   1     1    20  
  4   3     1    21  
  5   5     2     3  
  6   5     2     7  
  7   5     3     4  
  8   6     3    22  
  9   5     4     5  
 10   6     4    23  
 11   5     5     6  
 12   7     5     8  
 13   5     6     7  
 14   6     6    24  
 15   6     7    25  
 16   9     9     8  
 17   8     9    10  
 18   5    11    12  
 19   5    11    16  
 20   5    12    13  
 21   6    12    26  
 22   5    13    14  
 23   6    13    27  
 24   5    14    15  
 25   7    14    17  
 26   5    15    16  
 27   6    15    28  
 28   6    16    29  
 29   9    18    17  
 30   8    18    19  
 31   4    20    30  
 32   4    20    31  
 33   4    20    32  

Angles

  1   6     2     1    21  
  2   5     2     1    11  
  3   3    20     1     2  
  4   4    20     1    21  
  5   6    11     1    21  
  6   3    20     1    11  
  7   7     3     2     7  
  8   2     1     2     7  
  9   2     1     2     3  
 10   8     2     3    22  
 11   8     4     3    22  
 12   7     2     3     4  
 13   8     5     4    23  
 14   7     3     4     5  
 15   8     3     4    23  
 16   7     4     5     6  
 17   9     6     5     8  
 18   9     4     5     8  
 19   7     5     6     7  
 20   8     7     6    24  
 21   8     5     6    24  
 22   8     2     7    25  
 23   7     2     7     6  
 24   8     6     7    25  
 25   10    5     8     9  
 26   12   10     9     8  
 27   2     1    11    16  
 28   7    12    11    16  
 29   2     1    11    12  
 30   7    11    12    13  
 31   8    13    12    26  
 32   8    11    12    26  
 33   7    12    13    14  
 34   8    12    13    27  
 35   8    14    13    27  
 36   9    13    14    17  
 37   9    15    14    17  
 38   7    13    14    15  
 39   8    16    15    28  
 40   7    14    15    16  
 41   8    14    15    28  
 42   8    11    16    29  
 43   8    15    16    29  
 44   7    11    16    15  
 45   10   14    17    18  
 46   12   19    18    17  
 47   1     1    20    32  
 48   11   30    20    31  
 49   1     1    20    31  
 50   11   30    20    32  
 51   11   31    20    32  
 52   1     1    20    30  

Dihedrals

  1   1    21     1    20    32  
  2   3     2     1    11    12  
  3   2    11     1    20    32  
  4   2     2     1    20    30  
  5   1    21     1    20    31  
  6   2    11     1    20    31  
  7   2     2     1    20    32  
  8   1    21     1    20    30  
  9   2    11     1    20    30  
 10   3     2     1    11    16  
 11   2     2     1    20    31  
 12   3    11     1     2     7  
 13   4    20     1     2     7  
 14   8     3     2     7    25  
 15   7     1     2     3     4  
 16   5    21     1     2     3  
 17   9     1     2     3    22  
 18   6     3     2     7     6  
 19   3    11     1     2     3  
 20   9     1     2     7    25  
 21   4    20     1     2     3  
 22   8     7     2     3    22  
 23   7     1     2     7     6  
 24   5    21     1     2     7  
 25   6     4     3     2     7  
 26   10   22     3     4    23  
 27   6     2     3     4     5  
 28   8     2     3     4    23  
 29   8     5     4     3    22  
 30   6     3     4     5     6  
 31   11    3     4     5     8  
 32   12   24     6     5     8  
 33   13    4     5     8     9  
 34   12   23     4     5     8  
 35   6     4     5     6     7  
 36   8     4     5     6    24  
 37   13    6     5     8     9  
 38   8     6     5     4    23  
 39   10   24     6     7    25  
 40   8     5     6     7    25  
 41   11    7     6     5     8  
 42   6     2     7     6     5  
 43   8     2     7     6    24  
 44   14   10     9     8     5  
 45   8    12    11    16    29  
 46   4    20     1    11    16  
 47   8    16    11    12    26  
 48   7     1    11    16    15  
 49   9     1    11    12    26  
 50   5    21     1    11    12  
 51   6    12    11    16    15  
 52   9     1    11    16    29  
 53   7     1    11    12    13  
 54   5    21     1    11    16  
 55   4    20     1    11    12  
 56   6    13    12    11    16  
 57   10   26    12    13    27  
 58   8    11    12    13    27  
 59   6    11    12    13    14  
 60   6    12    13    14    15  
 61   8    14    13    12    26  
 62   11   12    13    14    17  
 63   12   28    15    14    17  
 64   13   15    14    17    18  
 65   12   27    13    14    17  
 66   6    13    14    15    16  
 67   8    13    14    15    28  
 68   13   13    14    17    18  
 69   8    15    14    13    27  
 70   11   16    15    14    17  
 71   10   28    15    16    29  
 72   8    14    15    16    29  
 73   8    11    16    15    28  
 74   6    11    16    15    14  
 75   14   19    18    17    14  

Impropers

  1   1     1     2     3     7  
  2   2     2     3     4    22  
  3   2     3     4     5    23  
  4   3     4     5     6     8  
  5   2     5     6     7    24  
  6   2     2     7     6    25  
  7   1     1    11    12    16  
  8   2    11    12    13    26  
  9   2    12    13    14    27  
 10   3    13    14    15    17  
 11   2    14    15    16    28  
 12   2    11    16    15    29  
 13   6    20     1     2    21  
 14   7     2     1    11    21  
 15   6    20     1    11    21  
 16   5    20     1     2    11  
 17   4     1    20    30    32  
 18   4     1    20    31    32  
 19   8    30    20    31    32  
 20   4     1    20    30    31  
