HEADER,  post1.mol2  read w/ mol2SYBYL2lmp > atom_typing v1.4 / 2 May 2023 w/PCFF-IFF atom-types > all2lmp: v1.7 / 2 May 2023  Class: 2

28 atoms
29 bonds
43 angles
58 dihedrals
13 impropers

8 atom types
9 bond types
11 angle types
15 dihedral types
4 improper types

-5.251610714 4.922689286 xlo xhi
-3.062200000 4.820200000 ylo yhi
-2.693796429 2.824903571 zlo zhi

Masses

1   12.01115000  #  c1   
2   12.01100000  #  c_2  
3   12.01115000  #  cp   
4   12.01115000  #  ct   
5    1.00797000  #  hpan 
6   14.00670000  #  n=1  
7   14.00670000  #  nt   
8   15.99940000  #  oc   

Pair Coeffs  # lj/class2/coul/long

1         0.05400000      4.01000000 #  c1   
2         0.12000000      3.81000000 #  c_2  
3         0.06400000      4.01000000 #  cp   
4         0.06400000      4.01000000 #  ct   
5         0.02000000      2.30000000 #  hpan 
6         0.06200000      4.12100000 #  n=1  
7         0.06500000      3.57000000 #  nt   
8         0.24000000      3.53500000 #  oc   

Bond Coeffs  # class2

1         1.50100000    321.90210000   -521.82080000    572.16280000 #  c1          cp   
2         1.40500000    296.29960000      0.00000000      0.00000000 #  c_2        n=1   
3         1.15800000    880.00000000      0.00000000      0.00000000 #  c_2         nt   
4         1.34000000    400.00000000      0.00000000      0.00000000 #  c_2         oc   
5         1.41700000    470.83610000   -627.61790000   1327.63450000 #  cp          cp   
6         1.09820000    372.82510000   -803.45260000    894.31730000 #  cp        hpan   
7         1.37680000    428.87980000   -738.23510000   1114.96550000 #  cp          oc   
8         1.35500000    342.24480000      0.00000000      0.00000000 #  ct         n=1   
9         1.31300000    367.81640000      0.00000000      0.00000000 #  ct          oc   

Angle Coeffs  # class2

1       120.05000000     44.71480000    -22.73520000      0.00000000 #  c1         cp         cp   
2       120.00000000     50.00000000      0.00000000      0.00000000 #  c_2       n=1         ct   
3       109.50000000     60.00000000      0.00000000      0.00000000 #  c_2        oc         cp   
4       118.90000000     61.02260000    -34.99310000      0.00000000 #  cp         cp         cp   
5       117.94000000     35.15580000    -12.46820000      0.00000000 #  cp         cp       hpan   
6       123.42000000     73.67810000    -21.67870000      0.00000000 #  cp         cp         oc   
7       109.50000000     60.00000000      0.00000000      0.00000000 #  cp         oc         ct   
8       120.00000000    102.00000000      0.00000000      0.00000000 #  n=1       c_2         nt   
9       110.00000000    122.00000000      0.00000000      0.00000000 #  n=1       c_2         oc   
10      180.00000000    200.00000000      0.00000000      0.00000000 #  n=1        ct         oc   
11      110.00000000    122.00000000      0.00000000      0.00000000 #  nt        c_2         oc   

Dihedral Coeffs  # class2

1         8.36670000      0.00000000      1.19320000      0.00000000      0.00000000      0.00000000 #  cp         cp        cp         cp   
2         0.00000000      0.00000000      4.40720000      0.00000000      0.00000000      0.00000000 #  c1         cp        cp         cp   
3         0.00000000      0.00000000      3.96610000      0.00000000      0.00000000      0.00000000 #  cp         cp        cp       hpan   
4         0.00000000      0.00000000      1.87690000      0.00000000      0.00000000      0.00000000 #  hpan       cp        cp       hpan   
5         0.00000000      0.00000000      1.55900000      0.00000000      0.00000000      0.00000000 #  c1         cp        cp       hpan   
6         0.00000000      0.00000000      4.84980000      0.00000000      0.00000000      0.00000000 #  cp         cp        cp         oc   
7         0.00000000      0.00000000      1.72340000      0.00000000      0.00000000      0.00000000 #  hpan       cp        cp         oc   
8         0.00000000      0.00000000      1.80000000      0.00000000      0.00000000      0.00000000 #  cp         cp        oc         ct   
9         0.00000000      0.00000000      0.90000000      0.00000000      0.00000000      0.00000000 #  nt        c_2       n=1         ct   
10        0.00000000      0.00000000      0.90000000      0.00000000      0.00000000      0.00000000 #  oc        c_2       n=1         ct   
11        0.00000000      0.00000000      0.00000000      0.00000000      0.00000000      0.00000000 #  c_2       n=1        ct         oc   
12        0.00000000      0.00000000      2.25000000      0.00000000      0.00000000      0.00000000 #  n=1       c_2        oc         cp   
13        0.00000000      0.00000000      2.25000000      0.00000000      0.00000000      0.00000000 #  nt        c_2        oc         cp   
14        0.00000000      0.00000000      1.80000000      0.00000000      0.00000000      0.00000000 #  cp         cp        oc        c_2   
15        0.00000000      0.00000000      0.00000000      0.00000000      0.00000000      0.00000000 #  n=1        ct        oc         cp   

Improper Coeffs  # class2

1         7.81530000      0.00000000 #  c1         cp        cp        cp      nb==3   
2         4.89120000      0.00000000 #  cp         cp        cp       hpan     nb==3   
3        13.04210000      0.00000000 #  cp         cp        cp        oc      nb==3   
4        36.00000000      0.00000000 #  n=1       c_2        nt        oc      nb==3   

BondBond Coeffs  # class2

1        12.06760000      1.50100000      1.41700000 #  c1         cp         cp   
2         0.00000000      1.40500000      1.35500000 #  c_2       n=1         ct   
3         0.00000000      1.34000000      1.37680000 #  c_2        oc         cp   
4        68.28560000      1.41700000      1.41700000 #  cp         cp         cp   
5         1.07950000      1.41700000      1.09820000 #  cp         cp       hpan   
6        48.47540000      1.41700000      1.37680000 #  cp         cp         oc   
7         0.00000000      1.37680000      1.31300000 #  cp         oc         ct   
8         0.00000000      1.40500000      0.00000000 #  n=1       c_2         nt   
9         0.00000000      1.40500000      1.34000000 #  n=1       c_2         oc   
10        0.00000000      1.35500000      1.31300000 #  n=1        ct         oc   
11        0.00000000      0.00000000      1.34000000 #  nt        c_2         oc   

BondAngle Coeffs  # class2

1        47.05790000     31.07710000      1.50100000      1.41700000 #  c1         cp         cp   
2         0.00000000      0.00000000      1.40500000      1.35500000 #  c_2       n=1         ct   
3         0.00000000      0.00000000      1.34000000      1.37680000 #  c_2        oc         cp   
4        28.87080000     28.87080000      1.41700000      1.41700000 #  cp         cp         cp   
5        20.00330000     24.21830000      1.41700000      1.09820000 #  cp         cp       hpan   
6        58.47900000    107.68060000      1.41700000      1.37680000 #  cp         cp         oc   
7         0.00000000      0.00000000      1.37680000      1.31300000 #  cp         oc         ct   
8         0.00000000      0.00000000      1.40500000      0.00000000 #  n=1       c_2         nt   
9         0.00000000      0.00000000      1.40500000      1.34000000 #  n=1       c_2         oc   
10        0.00000000      0.00000000      1.35500000      1.31300000 #  n=1        ct         oc   
11        0.00000000      0.00000000      0.00000000      1.34000000 #  nt        c_2         oc   

AngleAngleTorsion Coeffs  # class2

1         0.00000000    118.90000000    118.90000000 #  cp         cp        cp         cp   
2       -14.40970000    120.05000000    118.90000000 #  c1         cp        cp         cp   
3        -4.81410000    118.90000000    117.94000000 #  cp         cp        cp       hpan   
4         0.35980000    117.94000000    117.94000000 #  hpan       cp        cp       hpan   
5         4.44440000    120.05000000    117.94000000 #  c1         cp        cp       hpan   
6       -21.02470000    118.90000000    123.42000000 #  cp         cp        cp         oc   
7         4.22960000    117.94000000    123.42000000 #  hpan       cp        cp         oc   
8         0.00000000    123.42000000    109.50000000 #  cp         cp        oc         ct   
9         0.00000000    120.00000000    120.00000000 #  nt        c_2       n=1         ct   
10        0.00000000    120.00000000    120.00000000 #  oc        c_2       n=1         ct   
11        0.00000000    120.00000000    180.00000000 #  c_2       n=1        ct         oc   
12        0.00000000    110.00000000    109.50000000 #  n=1       c_2        oc         cp   
13        0.00000000    110.00000000    109.50000000 #  nt        c_2        oc         cp   
14        0.00000000    123.42000000    109.50000000 #  cp         cp        oc        c_2   
15        0.00000000    180.00000000    109.50000000 #  n=1        ct        oc         cp   

EndBondTorsion Coeffs  # class2

1        -0.11850000      6.32040000      0.00000000     -0.11850000      6.32040000      0.00000000      1.41700000      1.41700000 #  cp         cp        cp         cp   
2         0.00000000      0.24210000      0.00000000      0.00000000     -0.69180000      0.00000000      1.50100000      1.41700000 #  c1         cp        cp         cp   
3         0.00000000     -6.89580000      0.00000000      0.00000000     -0.46690000      0.00000000      1.41700000      1.09820000 #  cp         cp        cp       hpan   
4         0.00000000     -0.68900000      0.00000000      0.00000000     -0.68900000      0.00000000      1.09820000      1.09820000 #  hpan       cp        cp       hpan   
5         0.00000000     -1.79700000      0.00000000      0.00000000     -0.48790000      0.00000000      1.50100000      1.09820000 #  c1         cp        cp       hpan   
6         0.00000000      0.26550000      0.00000000      0.00000000      4.89050000      0.00000000      1.41700000      1.37680000 #  cp         cp        cp         oc   
7         0.00000000     -1.58670000      0.00000000      0.00000000      4.26410000      0.00000000      1.09820000      1.37680000 #  hpan       cp        cp         oc   
8         0.00000000      0.00000000      0.00000000      0.00000000      0.00000000      0.00000000      1.41700000      1.31300000 #  cp         cp        oc         ct   
9         0.00000000      0.00000000      0.00000000      0.00000000      0.00000000      0.00000000      0.00000000      1.35500000 #  nt        c_2       n=1         ct   
10        0.00000000      0.00000000      0.00000000      0.00000000      0.00000000      0.00000000      1.34000000      1.35500000 #  oc        c_2       n=1         ct   
11        0.00000000      0.00000000      0.00000000      0.00000000      0.00000000      0.00000000      1.40500000      1.31300000 #  c_2       n=1        ct         oc   
12        0.00000000      0.00000000      0.00000000      0.00000000      0.00000000      0.00000000      1.40500000      1.37680000 #  n=1       c_2        oc         cp   
13        0.00000000      0.00000000      0.00000000      0.00000000      0.00000000      0.00000000      0.00000000      1.37680000 #  nt        c_2        oc         cp   
14        0.00000000      0.00000000      0.00000000      0.00000000      0.00000000      0.00000000      1.41700000      1.34000000 #  cp         cp        oc        c_2   
15        0.00000000      0.00000000      0.00000000      0.00000000      0.00000000      0.00000000      1.35500000      1.37680000 #  n=1        ct        oc         cp   

MiddleBondTorsion Coeffs  # class2

1        27.59890000     -2.31200000      0.00000000      1.41700000 #  cp         cp        cp         cp   
2         0.00000000      9.17920000      0.00000000      1.41700000 #  c1         cp        cp         cp   
3         0.00000000     -1.15210000      0.00000000      1.41700000 #  cp         cp        cp       hpan   
4         0.00000000      4.82280000      0.00000000      1.41700000 #  hpan       cp        cp       hpan   
5         0.00000000      3.94210000      0.00000000      1.41700000 #  c1         cp        cp       hpan   
6         0.00000000      4.82550000      0.00000000      1.41700000 #  cp         cp        cp         oc   
7         0.00000000      5.54320000      0.00000000      1.41700000 #  hpan       cp        cp         oc   
8         0.00000000      0.00000000      0.00000000      1.37680000 #  cp         cp        oc         ct   
9         0.00000000      0.00000000      0.00000000      1.40500000 #  nt        c_2       n=1         ct   
10        0.00000000      0.00000000      0.00000000      1.40500000 #  oc        c_2       n=1         ct   
11        0.00000000      0.00000000      0.00000000      1.35500000 #  c_2       n=1        ct         oc   
12        0.00000000      0.00000000      0.00000000      1.34000000 #  n=1       c_2        oc         cp   
13        0.00000000      0.00000000      0.00000000      1.34000000 #  nt        c_2        oc         cp   
14        0.00000000      0.00000000      0.00000000      1.37680000 #  cp         cp        oc        c_2   
15        0.00000000      0.00000000      0.00000000      1.31300000 #  n=1        ct        oc         cp   

BondBond13 Coeffs  # class2

1        53.00000000      1.41700000      1.41700000 #  cp         cp        cp         cp   
2         2.50850000      1.50100000      1.41700000 #  c1         cp        cp         cp   
3        -6.27410000      1.41700000      1.09820000 #  cp         cp        cp       hpan   
4        -1.70770000      1.09820000      1.09820000 #  hpan       cp        cp       hpan   
5         0.87430000      1.50100000      1.09820000 #  c1         cp        cp       hpan   
6        -2.24360000      1.41700000      1.37680000 #  cp         cp        cp         oc   
7         2.05170000      1.09820000      1.37680000 #  hpan       cp        cp         oc   
8         0.00000000      1.41700000      1.31300000 #  cp         cp        oc         ct   
9         0.00000000      0.00000000      1.35500000 #  nt        c_2       n=1         ct   
10        0.00000000      1.34000000      1.35500000 #  oc        c_2       n=1         ct   
11        0.00000000      1.40500000      1.31300000 #  c_2       n=1        ct         oc   
12        0.00000000      1.40500000      1.37680000 #  n=1       c_2        oc         cp   
13        0.00000000      0.00000000      1.37680000 #  nt        c_2        oc         cp   
14        0.00000000      1.41700000      1.34000000 #  cp         cp        oc        c_2   
15        0.00000000      1.35500000      1.37680000 #  n=1        ct        oc         cp   

AngleTorsion Coeffs  # class2

1         1.97670000      1.02390000      0.00000000      1.97670000      1.02390000      0.00000000    118.90000000    118.90000000 #  cp         cp        cp         cp   
2         0.00000000     -4.46830000      0.00000000      0.00000000      3.89870000      0.00000000    120.05000000    118.90000000 #  c1         cp        cp         cp   
3         0.00000000      2.50140000      0.00000000      0.00000000      2.71470000      0.00000000    118.90000000    117.94000000 #  cp         cp        cp       hpan   
4         0.00000000      2.45010000      0.00000000      0.00000000      2.45010000      0.00000000    117.94000000    117.94000000 #  hpan       cp        cp       hpan   
5         0.00000000     -0.12420000      0.00000000      0.00000000      3.46010000      0.00000000    120.05000000    117.94000000 #  c1         cp        cp       hpan   
6         0.00000000     10.01550000      0.00000000      0.00000000      1.74040000      0.00000000    118.90000000    123.42000000 #  cp         cp        cp         oc   
7         0.00000000      1.87290000      0.00000000      0.00000000      2.57060000      0.00000000    117.94000000    123.42000000 #  hpan       cp        cp         oc   
8         0.00000000      0.00000000      0.00000000      0.00000000      0.00000000      0.00000000    123.42000000    109.50000000 #  cp         cp        oc         ct   
9         0.00000000      0.00000000      0.00000000      0.00000000      0.00000000      0.00000000    120.00000000    120.00000000 #  nt        c_2       n=1         ct   
10        0.00000000      0.00000000      0.00000000      0.00000000      0.00000000      0.00000000    120.00000000    120.00000000 #  oc        c_2       n=1         ct   
11        0.00000000      0.00000000      0.00000000      0.00000000      0.00000000      0.00000000    120.00000000    180.00000000 #  c_2       n=1        ct         oc   
12        0.00000000      0.00000000      0.00000000      0.00000000      0.00000000      0.00000000    110.00000000    109.50000000 #  n=1       c_2        oc         cp   
13        0.00000000      0.00000000      0.00000000      0.00000000      0.00000000      0.00000000    110.00000000    109.50000000 #  nt        c_2        oc         cp   
14        0.00000000      0.00000000      0.00000000      0.00000000      0.00000000      0.00000000    123.42000000    109.50000000 #  cp         cp        oc        c_2   
15        0.00000000      0.00000000      0.00000000      0.00000000      0.00000000      0.00000000    180.00000000    109.50000000 #  n=1        ct        oc         cp   

AngleAngle Coeffs  # class2

1         0.00000000      0.00000000      0.00000000    120.05000000    118.90000000    120.05000000 #  c1         cp        cp        cp      nb==3   
2         0.00000000      0.00000000      0.00000000    118.90000000    117.94000000    117.94000000 #  cp         cp        cp       hpan     nb==3   
3         0.00000000      0.00000000      0.00000000    118.90000000    123.42000000    123.42000000 #  cp         cp        cp        oc      nb==3   
4         0.00000000      0.00000000      0.00000000    120.00000000    110.00000000    110.00000000 #  n=1       c_2        nt        oc      nb==3   

Atoms # full

 1  1  3    0.000000    0.315489286     3.164100000    -0.453296429      0    0    0 #  cp/C
 2  1  3   -0.126800    0.850189286     1.919500000    -0.120796429      0    0    0 #  cp/C
 3  1  3   -0.126800    0.001789286     0.849300000     0.163003571      0    0    0 #  cp/C
 4  1  3    0.026500   -1.381210714     1.023800000     0.114403571      0    0    0 #  cp/C
 5  1  3   -0.126800   -1.915910714     2.268400000    -0.217996429      0    0    0 #  cp/C
 6  1  3   -0.126800   -1.067510714     3.338600000    -0.501896429      0    0    0 #  cp/C
 7  1  8   -0.026500   -2.205310714    -0.015800000     0.390103571      0    0    0 #  oc/O
 8  1  2    0.000000   -3.603410714     0.160600000     0.341003571      0    0    0 #  c_2/C
 9  1  7    0.000000   -4.751610714     0.305400000     0.300603571      0    0    0 #  nt/N
10  1  5    0.126800    0.423389286    -0.132300000     0.425103571      0    0    0 #  hpan/H
11  1  5    0.126800    1.940889286     1.782000000    -0.082396429      0    0    0 #  hpan/H
12  1  5    0.126800   -3.006610714     2.406000000    -0.256296429      0    0    0 #  hpan/H
13  1  5    0.126800   -1.489210714     4.320200000    -0.764096429      0    0    0 #  hpan/H
14  1  3    0.000000    2.967789286    -1.655700000    -0.055996429      0    0    0 #  cp/C
15  1  3   -0.126800    2.197989286    -1.878400000    -1.197696429      0    0    0 #  cp/C
16  1  3   -0.126800    0.842389286    -2.183500000    -1.076096429      0    0    0 #  cp/C
17  1  3    0.026500    0.256589286    -2.265900000     0.187103571      0    0    0 #  cp/C
18  1  3   -0.126800    1.026389286    -2.043300000     1.328703571      0    0    0 #  cp/C
19  1  3   -0.126800    2.381989286    -1.738100000     1.207103571      0    0    0 #  cp/C
20  1  8   -0.094000   -1.060310714    -2.562200000     0.305103571      0    0    0 #  oc/O
21  1  4    0.187900   -2.017510714    -1.527000000     0.318003571      0    0    0 #  ct/C
22  1  6   -0.120400   -2.803610714    -0.676800000     0.328603571      0    0    0 #  n=1/N
23  1  5    0.126800    0.235189286    -2.359100000    -1.976396429      0    0    0 #  hpan/H
24  1  5    0.126800    2.659989286    -1.813500000    -2.193796429      0    0    0 #  hpan/H
25  1  5    0.126800    0.564389286    -2.108300000     2.324903571      0    0    0 #  hpan/H
26  1  5    0.126800    2.989089286    -1.562500000     2.107503571      0    0    0 #  hpan/H
27  1  1   -0.053000    1.225989286     4.312700000    -0.757996429      0    0    0 #  c1/C
28  1  1   -0.053000    4.422689286    -1.328200000    -0.186496429      0    0    0 #  c1/C

Bonds

  1   5     1     2  
  2   5     1     6  
  3   1    27     1  
  4   5     2     3  
  5   6     2    11  
  6   5     3     4  
  7   6     3    10  
  8   5     4     5  
  9   7     4     7  
 10   5     5     6  
 11   6     5    12  
 12   6     6    13  
 13   4     8     7  
 14   3     8     9  
 15   2     8    22  
 16   5    14    15  
 17   5    14    19  
 18   1    28    14  
 19   5    15    16  
 20   6    15    24  
 21   5    16    17  
 22   6    16    23  
 23   5    17    18  
 24   7    17    20  
 25   5    18    19  
 26   6    18    25  
 27   6    19    26  
 28   9    21    20  
 29   8    21    22  

Angles

  1   4     2     1     6  
  2   1    27     1     2  
  3   1    27     1     6  
  4   5     1     2    11  
  5   4     1     2     3  
  6   5     3     2    11  
  7   5     4     3    10  
  8   4     2     3     4  
  9   5     2     3    10  
 10   6     3     4     7  
 11   6     5     4     7  
 12   4     3     4     5  
 13   4     4     5     6  
 14   5     4     5    12  
 15   5     6     5    12  
 16   4     1     6     5  
 17   5     5     6    13  
 18   5     1     6    13  
 19   3     8     7     4  
 20   9    22     8     7  
 21   11    9     8     7  
 22   8    22     8     9  
 23   1    28    14    19  
 24   4    15    14    19  
 25   1    28    14    15  
 26   5    14    15    24  
 27   4    14    15    16  
 28   5    16    15    24  
 29   5    17    16    23  
 30   4    15    16    17  
 31   5    15    16    23  
 32   6    16    17    20  
 33   6    18    17    20  
 34   4    16    17    18  
 35   4    17    18    19  
 36   5    17    18    25  
 37   5    19    18    25  
 38   4    14    19    18  
 39   5    18    19    26  
 40   5    14    19    26  
 41   7    17    20    21  
 42   10   22    21    20  
 43   2     8    22    21  

Dihedrals

  1   3     2     1     6    13  
  2   3     6     1     2    11  
  3   1     2     1     6     5  
  4   1     3     2     1     6  
  5   1     1     2     3     4  
  6   2    27     1     2     3  
  7   3     1     2     3    10  
  8   5    27     1     2    11  
  9   1     2     3     4     5  
 10   4    10     3     2    11  
 11   6     2     3     4     7  
 12   3     4     3     2    11  
 13   3     5     4     3    10  
 14   7    12     5     4     7  
 15   1     3     4     5     6  
 16   3     3     4     5    12  
 17   7    10     3     4     7  
 18   14    5     4     7     8  
 19   14    3     4     7     8  
 20   3     4     5     6    13  
 21   6     6     5     4     7  
 22   4    12     5     6    13  
 23   1     1     6     5     4  
 24   3     1     6     5    12  
 25   5    27     1     6    13  
 26   2    27     1     6     5  
 27   12   22     8     7     4  
 28   13    9     8     7     4  
 29   9     9     8    22    21  
 30   10    7     8    22    21  
 31   1    15    14    19    18  
 32   3    15    14    19    26  
 33   3    19    14    15    24  
 34   1    16    15    14    19  
 35   2    28    14    15    16  
 36   1    14    15    16    17  
 37   3    14    15    16    23  
 38   5    28    14    15    24  
 39   6    15    16    17    20  
 40   3    17    16    15    24  
 41   1    15    16    17    18  
 42   4    23    16    15    24  
 43   7    25    18    17    20  
 44   8    18    17    20    21  
 45   8    16    17    20    21  
 46   3    18    17    16    23  
 47   7    23    16    17    20  
 48   1    16    17    18    19  
 49   3    16    17    18    25  
 50   3    17    18    19    26  
 51   6    19    18    17    20  
 52   4    25    18    19    26  
 53   2    28    14    19    18  
 54   1    14    19    18    17  
 55   5    28    14    19    26  
 56   3    14    19    18    25  
 57   15   22    21    20    17  
 58   11    8    22    21    20  

Impropers

  1   1    27     1     2     6  
  2   2     1     2     3    11  
  3   2     2     3     4    10  
  4   3     3     4     5     7  
  5   2     4     5     6    12  
  6   2     1     6     5    13  
  7   4    22     8     9     7  
  8   1    28    14    15    19  
  9   2    14    15    16    24  
 10   2    15    16    17    23  
 11   3    16    17    18    20  
 12   2    17    18    19    25  
 13   2    14    19    18    26  
