HEADER,  post2.mol2  read w/ mol2SYBYL2lmp > atom_typing v1.4 / 2 May 2023 w/PCFF-IFF atom-types > all2lmp: v1.7 / 2 May 2023  Class: 2

42 atoms
45 bonds
69 angles
96 dihedrals
21 impropers

5 atom types
5 bond types
8 angle types
11 dihedral types
4 improper types

-6.224000000 8.221100000 xlo xhi
-2.572702381 3.148697619 ylo yhi
-3.721797619 3.843702381 zlo zhi

Masses

1   12.01115000  #  c1   
2   12.01115000  #  cp   
3    1.00797000  #  hpan 
4   14.00670000  #  np   
5   15.99940000  #  oc   

Pair Coeffs  # lj/class2/coul/long

1         0.05400000      4.01000000 #  c1   
2         0.06400000      4.01000000 #  cp   
3         0.02000000      2.30000000 #  hpan 
4         0.04100000      3.57000000 #  np   
5         0.24000000      3.53500000 #  oc   

Bond Coeffs  # class2

1         1.50100000    321.90210000   -521.82080000    572.16280000 #  c1          cp   
2         1.41700000    470.83610000   -627.61790000   1327.63450000 #  cp          cp   
3         1.09820000    372.82510000   -803.45260000    894.31730000 #  cp        hpan   
4         1.34850000    508.85870000   -977.69140000   1772.51340000 #  cp          np   
5         1.37680000    428.87980000   -738.23510000   1114.96550000 #  cp          oc   

Angle Coeffs  # class2

1       120.05000000     44.71480000    -22.73520000      0.00000000 #  c1         cp         cp   
2       118.90000000     61.02260000    -34.99310000      0.00000000 #  cp         cp         cp   
3       117.94000000     35.15580000    -12.46820000      0.00000000 #  cp         cp       hpan   
4       123.42000000     73.67810000    -21.67870000      0.00000000 #  cp         cp         oc   
5       111.68000000     84.51590000    -48.55280000      0.00000000 #  cp         np         cp   
6       109.50000000     60.00000000      0.00000000      0.00000000 #  cp         oc         cp   
7       115.38000000     85.49230000     -6.52250000      0.00000000 #  np         cp         np   
8       120.00000000     60.00000000      0.00000000      0.00000000 #  np         cp         oc   

Dihedral Coeffs  # class2

1         8.36670000      0.00000000      1.19320000      0.00000000      0.00000000      0.00000000 #  cp         cp        cp         cp   
2         0.00000000      0.00000000      4.40720000      0.00000000      0.00000000      0.00000000 #  c1         cp        cp         cp   
3         0.00000000      0.00000000      3.96610000      0.00000000      0.00000000      0.00000000 #  cp         cp        cp       hpan   
4         0.00000000      0.00000000      1.87690000      0.00000000      0.00000000      0.00000000 #  hpan       cp        cp       hpan   
5         0.00000000      0.00000000      1.55900000      0.00000000      0.00000000      0.00000000 #  c1         cp        cp       hpan   
6         0.00000000      0.00000000      4.84980000      0.00000000      0.00000000      0.00000000 #  cp         cp        cp         oc   
7         0.00000000      0.00000000      1.72340000      0.00000000      0.00000000      0.00000000 #  hpan       cp        cp         oc   
8         0.00000000      0.00000000      1.80000000      0.00000000      0.00000000      0.00000000 #  cp         cp        oc         cp   
9         0.00000000      0.00000000      7.46640000      0.00000000      0.00000000      0.00000000 #  np         cp        np         cp   
10        0.00000000      0.00000000      2.00000000      0.00000000      0.00000000      0.00000000 #  oc         cp        np         cp   
11        0.00000000      0.00000000      1.80000000      0.00000000      0.00000000      0.00000000 #  np         cp        oc         cp   

Improper Coeffs  # class2

1         7.81530000      0.00000000 #  c1         cp        cp        cp      nb==3   
2         4.89120000      0.00000000 #  cp         cp        cp       hpan     nb==3   
3        13.04210000      0.00000000 #  cp         cp        cp        oc      nb==3   
4        10.00000000      0.00000000 #  np         cp        np        oc      nb==3   

BondBond Coeffs  # class2

1        12.06760000      1.50100000      1.41700000 #  c1         cp         cp   
2        68.28560000      1.41700000      1.41700000 #  cp         cp         cp   
3         1.07950000      1.41700000      1.09820000 #  cp         cp       hpan   
4        48.47540000      1.41700000      1.37680000 #  cp         cp         oc   
5       125.00570000      1.34850000      1.34850000 #  cp         np         cp   
6         0.00000000      1.37680000      1.37680000 #  cp         oc         cp   
7       125.00570000      1.34850000      1.34850000 #  np         cp         np   
8         0.00000000      1.34850000      1.37680000 #  np         cp         oc   

BondAngle Coeffs  # class2

1        47.05790000     31.07710000      1.50100000      1.41700000 #  c1         cp         cp   
2        28.87080000     28.87080000      1.41700000      1.41700000 #  cp         cp         cp   
3        20.00330000     24.21830000      1.41700000      1.09820000 #  cp         cp       hpan   
4        58.47900000    107.68060000      1.41700000      1.37680000 #  cp         cp         oc   
5       111.21940000    111.21940000      1.34850000      1.34850000 #  cp         np         cp   
6         0.00000000      0.00000000      1.37680000      1.37680000 #  cp         oc         cp   
7        88.00950000     88.00950000      1.34850000      1.34850000 #  np         cp         np   
8         0.00000000      0.00000000      1.34850000      1.37680000 #  np         cp         oc   

AngleAngleTorsion Coeffs  # class2

1         0.00000000    118.90000000    118.90000000 #  cp         cp        cp         cp   
2       -14.40970000    120.05000000    118.90000000 #  c1         cp        cp         cp   
3        -4.81410000    118.90000000    117.94000000 #  cp         cp        cp       hpan   
4         0.35980000    117.94000000    117.94000000 #  hpan       cp        cp       hpan   
5         4.44440000    120.05000000    117.94000000 #  c1         cp        cp       hpan   
6       -21.02470000    118.90000000    123.42000000 #  cp         cp        cp         oc   
7         4.22960000    117.94000000    123.42000000 #  hpan       cp        cp         oc   
8         0.00000000    123.42000000    109.50000000 #  cp         cp        oc         cp   
9         0.00000000    115.38000000    111.68000000 #  np         cp        np         cp   
10        0.00000000    120.00000000    111.68000000 #  oc         cp        np         cp   
11        0.00000000    120.00000000    109.50000000 #  np         cp        oc         cp   

EndBondTorsion Coeffs  # class2

1        -0.11850000      6.32040000      0.00000000     -0.11850000      6.32040000      0.00000000      1.41700000      1.41700000 #  cp         cp        cp         cp   
2         0.00000000      0.24210000      0.00000000      0.00000000     -0.69180000      0.00000000      1.50100000      1.41700000 #  c1         cp        cp         cp   
3         0.00000000     -6.89580000      0.00000000      0.00000000     -0.46690000      0.00000000      1.41700000      1.09820000 #  cp         cp        cp       hpan   
4         0.00000000     -0.68900000      0.00000000      0.00000000     -0.68900000      0.00000000      1.09820000      1.09820000 #  hpan       cp        cp       hpan   
5         0.00000000     -1.79700000      0.00000000      0.00000000     -0.48790000      0.00000000      1.50100000      1.09820000 #  c1         cp        cp       hpan   
6         0.00000000      0.26550000      0.00000000      0.00000000      4.89050000      0.00000000      1.41700000      1.37680000 #  cp         cp        cp         oc   
7         0.00000000     -1.58670000      0.00000000      0.00000000      4.26410000      0.00000000      1.09820000      1.37680000 #  hpan       cp        cp         oc   
8         0.00000000      0.00000000      0.00000000      0.00000000      0.00000000      0.00000000      1.41700000      1.37680000 #  cp         cp        oc         cp   
9         0.00000000     -3.66690000      0.00000000      0.00000000     -3.66690000      0.00000000      1.34850000      1.34850000 #  np         cp        np         cp   
10        0.00000000      0.00000000      0.00000000      0.00000000      0.00000000      0.00000000      1.37680000      1.34850000 #  oc         cp        np         cp   
11        0.00000000      0.00000000      0.00000000      0.00000000      0.00000000      0.00000000      1.34850000      1.37680000 #  np         cp        oc         cp   

MiddleBondTorsion Coeffs  # class2

1        27.59890000     -2.31200000      0.00000000      1.41700000 #  cp         cp        cp         cp   
2         0.00000000      9.17920000      0.00000000      1.41700000 #  c1         cp        cp         cp   
3         0.00000000     -1.15210000      0.00000000      1.41700000 #  cp         cp        cp       hpan   
4         0.00000000      4.82280000      0.00000000      1.41700000 #  hpan       cp        cp       hpan   
5         0.00000000      3.94210000      0.00000000      1.41700000 #  c1         cp        cp       hpan   
6         0.00000000      4.82550000      0.00000000      1.41700000 #  cp         cp        cp         oc   
7         0.00000000      5.54320000      0.00000000      1.41700000 #  hpan       cp        cp         oc   
8         0.00000000      0.00000000      0.00000000      1.37680000 #  cp         cp        oc         cp   
9         0.00000000      3.53360000      0.00000000      1.34850000 #  np         cp        np         cp   
10        0.00000000      0.00000000      0.00000000      1.34850000 #  oc         cp        np         cp   
11        0.00000000      0.00000000      0.00000000      1.37680000 #  np         cp        oc         cp   

BondBond13 Coeffs  # class2

1        53.00000000      1.41700000      1.41700000 #  cp         cp        cp         cp   
2         2.50850000      1.50100000      1.41700000 #  c1         cp        cp         cp   
3        -6.27410000      1.41700000      1.09820000 #  cp         cp        cp       hpan   
4        -1.70770000      1.09820000      1.09820000 #  hpan       cp        cp       hpan   
5         0.87430000      1.50100000      1.09820000 #  c1         cp        cp       hpan   
6        -2.24360000      1.41700000      1.37680000 #  cp         cp        cp         oc   
7         2.05170000      1.09820000      1.37680000 #  hpan       cp        cp         oc   
8         0.00000000      1.41700000      1.37680000 #  cp         cp        oc         cp   
9      -133.94180000      1.34850000      1.34850000 #  np         cp        np         cp   
10        0.00000000      1.37680000      1.34850000 #  oc         cp        np         cp   
11        0.00000000      1.34850000      1.37680000 #  np         cp        oc         cp   

AngleTorsion Coeffs  # class2

1         1.97670000      1.02390000      0.00000000      1.97670000      1.02390000      0.00000000    118.90000000    118.90000000 #  cp         cp        cp         cp   
2         0.00000000     -4.46830000      0.00000000      0.00000000      3.89870000      0.00000000    120.05000000    118.90000000 #  c1         cp        cp         cp   
3         0.00000000      2.50140000      0.00000000      0.00000000      2.71470000      0.00000000    118.90000000    117.94000000 #  cp         cp        cp       hpan   
4         0.00000000      2.45010000      0.00000000      0.00000000      2.45010000      0.00000000    117.94000000    117.94000000 #  hpan       cp        cp       hpan   
5         0.00000000     -0.12420000      0.00000000      0.00000000      3.46010000      0.00000000    120.05000000    117.94000000 #  c1         cp        cp       hpan   
6         0.00000000     10.01550000      0.00000000      0.00000000      1.74040000      0.00000000    118.90000000    123.42000000 #  cp         cp        cp         oc   
7         0.00000000      1.87290000      0.00000000      0.00000000      2.57060000      0.00000000    117.94000000    123.42000000 #  hpan       cp        cp         oc   
8         0.00000000      0.00000000      0.00000000      0.00000000      0.00000000      0.00000000    123.42000000    109.50000000 #  cp         cp        oc         cp   
9         0.00000000      4.33460000      0.00000000      0.00000000      5.68960000      0.00000000    115.38000000    111.68000000 #  np         cp        np         cp   
10        0.00000000      0.00000000      0.00000000      0.00000000      0.00000000      0.00000000    120.00000000    111.68000000 #  oc         cp        np         cp   
11        0.00000000      0.00000000      0.00000000      0.00000000      0.00000000      0.00000000    120.00000000    109.50000000 #  np         cp        oc         cp   

AngleAngle Coeffs  # class2

1         0.00000000      0.00000000      0.00000000    120.05000000    118.90000000    120.05000000 #  c1         cp        cp        cp      nb==3   
2         0.00000000      0.00000000      0.00000000    118.90000000    117.94000000    117.94000000 #  cp         cp        cp       hpan     nb==3   
3         0.00000000      0.00000000      0.00000000    118.90000000    123.42000000    123.42000000 #  cp         cp        cp        oc      nb==3   
4         0.00000000      0.00000000      0.00000000    115.38000000    120.00000000    120.00000000 #  np         cp        np        oc      nb==3   

Atoms # full

 1  1  2    0.000000    6.095700000     1.492597619    -0.388297619      0    0    0 #  cp/C
 2  1  2   -0.126800    6.630400000     0.247997619    -0.055797619      0    0    0 #  cp/C
 3  1  2   -0.126800    5.782000000    -0.822202381     0.228002381      0    0    0 #  cp/C
 4  1  2    0.026500    4.399000000    -0.647702381     0.179402381      0    0    0 #  cp/C
 5  1  2   -0.126800    3.864300000     0.596897619    -0.152997619      0    0    0 #  cp/C
 6  1  2   -0.126800    4.712700000     1.667097619    -0.436897619      0    0    0 #  cp/C
 7  1  5   -0.053000    3.574900000    -1.687302381     0.455102381      0    0    0 #  oc/O
 8  1  2    0.507500    2.268900000    -1.338802381     0.360302381      0    0    0 #  cp/C
 9  1  4   -0.481000    1.615000000    -1.131602381     1.502302381      0    0    0 #  np/N
10  1  3    0.126800    6.203700000    -1.803802381     0.490102381      0    0    0 #  hpan/H
11  1  3    0.126800    7.721100000     0.110397619    -0.017397619      0    0    0 #  hpan/H
12  1  3    0.126800    2.773600000     0.734497619    -0.191297619      0    0    0 #  hpan/H
13  1  3    0.126800    4.291100000     2.648697619    -0.699097619      0    0    0 #  hpan/H
14  1  2    0.000000   -4.099700000     0.313197619    -1.818297619      0    0    0 #  cp/C
15  1  2   -0.126800   -3.734400000    -0.817402381    -2.548797619      0    0    0 #  cp/C
16  1  2   -0.126800   -2.391200000    -1.181102381    -2.645697619      0    0    0 #  cp/C
17  1  2    0.026500   -1.413600000    -0.414102381    -2.012097619      0    0    0 #  cp/C
18  1  2   -0.126800   -1.778900000     0.716497619    -1.281597619      0    0    0 #  cp/C
19  1  2   -0.126800   -3.122100000     1.080197619    -1.184597619      0    0    0 #  cp/C
20  1  5   -0.053000   -0.108900000    -0.767402381    -2.106197619      0    0    0 #  oc/O
21  1  2    0.507500    0.472900000    -0.890302381    -0.888597619      0    0    0 #  cp/C
22  1  4   -0.481000    1.759300000    -1.235502381    -0.866397619      0    0    0 #  np/N
23  1  3    0.126800   -2.103000000    -2.072702381    -3.221797619      0    0    0 #  hpan/H
24  1  3    0.126800   -4.505400000    -1.422202381    -3.048597619      0    0    0 #  hpan/H
25  1  3    0.126800   -1.007900000     1.321397619    -0.781897619      0    0    0 #  hpan/H
26  1  3    0.126800   -3.410300000     1.971797619    -0.608497619      0    0    0 #  hpan/H
27  1  1   -0.053000    7.006200000     2.641097619    -0.692997619      0    0    0 #  c1/C
28  1  1   -0.053000   -5.541200000     0.703497619    -1.714197619      0    0    0 #  c1/C
29  1  2    0.000000   -4.307900000     0.463297619     1.598402381      0    0    0 #  cp/C
30  1  2   -0.126800   -3.532600000     1.289397619     2.411902381      0    0    0 #  cp/C
31  1  2   -0.126800   -2.213100000     0.942597619     2.702202381      0    0    0 #  cp/C
32  1  2    0.026500   -1.669000000    -0.230302381     2.179002381      0    0    0 #  cp/C
33  1  2   -0.126800   -2.444300000    -1.056402381     1.365502381      0    0    0 #  cp/C
34  1  2   -0.126800   -3.763900000    -0.709602381     1.075102381      0    0    0 #  cp/C
35  1  5   -0.053000   -0.387200000    -0.567102381     2.461002381      0    0    0 #  oc/O
36  1  2    0.507500    0.337100000    -0.792602381     1.338302381      0    0    0 #  cp/C
37  1  4   -0.481000   -0.295400000    -0.654502381     0.174002381      0    0    0 #  np/N
38  1  3    0.126800   -1.601600000     1.594197619     3.343702381      0    0    0 #  hpan/H
39  1  3    0.126800   -3.961800000     2.214397619     2.824602381      0    0    0 #  hpan/H
40  1  3    0.126800   -2.015200000    -1.981502381     0.952902381      0    0    0 #  hpan/H
41  1  3    0.126800   -4.375300000    -1.361102381     0.433502381      0    0    0 #  hpan/H
42  1  1   -0.053000   -5.724000000     0.835497619     1.286702381      0    0    0 #  c1/C

Bonds

  1   2     1     2  
  2   2     1     6  
  3   1    27     1  
  4   2     2     3  
  5   3     2    11  
  6   2     3     4  
  7   3     3    10  
  8   2     4     5  
  9   5     4     7  
 10   2     5     6  
 11   3     5    12  
 12   3     6    13  
 13   5     8     7  
 14   4     8     9  
 15   4     8    22  
 16   4    36     9  
 17   2    14    15  
 18   2    14    19  
 19   1    28    14  
 20   2    15    16  
 21   3    15    24  
 22   2    16    17  
 23   3    16    23  
 24   2    17    18  
 25   5    17    20  
 26   2    18    19  
 27   3    18    25  
 28   3    19    26  
 29   5    21    20  
 30   4    21    22  
 31   4    21    37  
 32   2    29    30  
 33   2    29    34  
 34   1    42    29  
 35   2    30    31  
 36   3    30    39  
 37   2    31    32  
 38   3    31    38  
 39   2    32    33  
 40   5    32    35  
 41   2    33    34  
 42   3    33    40  
 43   3    34    41  
 44   5    36    35  
 45   4    36    37  

Angles

  1   2     2     1     6  
  2   1    27     1     2  
  3   1    27     1     6  
  4   3     1     2    11  
  5   2     1     2     3  
  6   3     3     2    11  
  7   3     4     3    10  
  8   2     2     3     4  
  9   3     2     3    10  
 10   4     3     4     7  
 11   4     5     4     7  
 12   2     3     4     5  
 13   2     4     5     6  
 14   3     4     5    12  
 15   3     6     5    12  
 16   2     1     6     5  
 17   3     5     6    13  
 18   3     1     6    13  
 19   6     4     7     8  
 20   8    22     8     7  
 21   8     9     8     7  
 22   7     9     8    22  
 23   5     8     9    36  
 24   1    28    14    19  
 25   2    15    14    19  
 26   1    28    14    15  
 27   3    14    15    24  
 28   2    14    15    16  
 29   3    16    15    24  
 30   3    17    16    23  
 31   2    15    16    17  
 32   3    15    16    23  
 33   4    16    17    20  
 34   4    18    17    20  
 35   2    16    17    18  
 36   2    17    18    19  
 37   3    17    18    25  
 38   3    19    18    25  
 39   2    14    19    18  
 40   3    18    19    26  
 41   3    14    19    26  
 42   6    17    20    21  
 43   8    22    21    20  
 44   8    37    21    20  
 45   7    22    21    37  
 46   5     8    22    21  
 47   2    30    29    34  
 48   1    42    29    34  
 49   1    42    29    30  
 50   2    29    30    31  
 51   3    29    30    39  
 52   3    31    30    39  
 53   2    30    31    32  
 54   3    32    31    38  
 55   3    30    31    38  
 56   4    31    32    35  
 57   4    33    32    35  
 58   2    31    32    33  
 59   3    34    33    40  
 60   2    32    33    34  
 61   3    32    33    40  
 62   3    29    34    41  
 63   3    33    34    41  
 64   2    29    34    33  
 65   6    32    35    36  
 66   7     9    36    37  
 67   8    37    36    35  
 68   8     9    36    35  
 69   5    21    37    36  

Dihedrals

  1   3     2     1     6    13  
  2   1     2     1     6     5  
  3   3     6     1     2    11  
  4   1     1     2     3     4  
  5   2    27     1     2     3  
  6   1     3     2     1     6  
  7   3     1     2     3    10  
  8   5    27     1     2    11  
  9   4    10     3     2    11  
 10   3     4     3     2    11  
 11   1     2     3     4     5  
 12   6     2     3     4     7  
 13   7    12     5     4     7  
 14   1     3     4     5     6  
 15   8     5     4     7     8  
 16   8     3     4     7     8  
 17   3     5     4     3    10  
 18   3     3     4     5    12  
 19   7    10     3     4     7  
 20   6     6     5     4     7  
 21   4    12     5     6    13  
 22   3     4     5     6    13  
 23   3     1     6     5    12  
 24   5    27     1     6    13  
 25   1     1     6     5     4  
 26   2    27     1     6     5  
 27   11    9     8     7     4  
 28   11   22     8     7     4  
 29   9     9     8    22    21  
 30   9    22     8     9    36  
 31   10    7     8    22    21  
 32   10    7     8     9    36  
 33   10   35    36     9     8  
 34   9    37    36     9     8  
 35   3    15    14    19    26  
 36   1    15    14    19    18  
 37   3    19    14    15    24  
 38   1    14    15    16    17  
 39   3    14    15    16    23  
 40   1    16    15    14    19  
 41   2    28    14    15    16  
 42   5    28    14    15    24  
 43   6    15    16    17    20  
 44   3    17    16    15    24  
 45   1    15    16    17    18  
 46   4    23    16    15    24  
 47   1    16    17    18    19  
 48   8    18    17    20    21  
 49   8    16    17    20    21  
 50   3    16    17    18    25  
 51   3    18    17    16    23  
 52   7    23    16    17    20  
 53   7    25    18    17    20  
 54   4    25    18    19    26  
 55   3    17    18    19    26  
 56   6    19    18    17    20  
 57   3    14    19    18    25  
 58   5    28    14    19    26  
 59   2    28    14    19    18  
 60   1    14    19    18    17  
 61   11   22    21    20    17  
 62   11   37    21    20    17  
 63   10   20    21    37    36  
 64   9    22    21    37    36  
 65   9    37    21    22     8  
 66   10   20    21    22     8  
 67   3    34    29    30    39  
 68   3    30    29    34    41  
 69   1    30    29    34    33  
 70   2    42    29    30    31  
 71   1    29    30    31    32  
 72   5    42    29    30    39  
 73   3    29    30    31    38  
 74   1    31    30    29    34  
 75   1    30    31    32    33  
 76   4    38    31    30    39  
 77   6    30    31    32    35  
 78   3    32    31    30    39  
 79   8    31    32    35    36  
 80   3    31    32    33    40  
 81   3    33    32    31    38  
 82   7    38    31    32    35  
 83   7    40    33    32    35  
 84   8    33    32    35    36  
 85   1    31    32    33    34  
 86   4    40    33    34    41  
 87   3    32    33    34    41  
 88   6    34    33    32    35  
 89   2    42    29    34    33  
 90   3    29    34    33    40  
 91   5    42    29    34    41  
 92   1    29    34    33    32  
 93   11   37    36    35    32  
 94   11    9    36    35    32  
 95   9     9    36    37    21  
 96   10   35    36    37    21  

Impropers

  1   1    27     1     2     6  
  2   2     1     2     3    11  
  3   2     2     3     4    10  
  4   3     3     4     5     7  
  5   2     4     5     6    12  
  6   2     1     6     5    13  
  7   4     9     8    22     7  
  8   1    28    14    15    19  
  9   2    14    15    16    24  
 10   2    15    16    17    23  
 11   3    16    17    18    20  
 12   2    17    18    19    25  
 13   2    14    19    18    26  
 14   4    22    21    37    20  
 15   1    42    29    30    34  
 16   2    29    30    31    39  
 17   2    30    31    32    38  
 18   3    31    32    33    35  
 19   2    32    33    34    40  
 20   2    29    34    33    41  
 21   4     9    36    37    35  
