HEADER,  pre1.mol2  read w/ mol2SYBYL2lmp > atom_typing v1.4 / 2 May 2023 w/PCFF-IFF atom-types > all2lmp: v1.7 / 2 May 2023  Class: 2 BondingID = [8, 23, 8, 22]

28 atoms
28 bonds
40 angles
54 dihedrals
12 impropers

6 atom types
6 bond types
6 angle types
9 dihedral types
3 improper types

-8.800503571 8.084496429 xlo xhi
-2.468192857 2.984307143 ylo yhi
-1.162621429 1.026578571 zlo zhi

Masses

1   12.01115000  #  c1   
2   12.01115000  #  cp   
3   12.01115000  #  ct   
4    1.00797000  #  hpan 
5   14.00670000  #  nt   
6   15.99940000  #  oc   

Pair Coeffs  # lj/class2/coul/long

1         0.05400000      4.01000000 #  c1   
2         0.06400000      4.01000000 #  cp   
3         0.06400000      4.01000000 #  ct   
4         0.02000000      2.30000000 #  hpan 
5         0.06500000      3.57000000 #  nt   
6         0.24000000      3.53500000 #  oc   

Bond Coeffs  # class2

1         1.50100000    321.90210000   -521.82080000    572.16280000 #  c1          cp   
2         1.41700000    470.83610000   -627.61790000   1327.63450000 #  cp          cp   
3         1.09820000    372.82510000   -803.45260000    894.31730000 #  cp        hpan   
4         1.37680000    428.87980000   -738.23510000   1114.96550000 #  cp          oc   
5         1.15800000    880.00000000      0.00000000      0.00000000 #  ct          nt   
6         1.31300000    367.81640000      0.00000000      0.00000000 #  ct          oc   

Angle Coeffs  # class2

1       120.05000000     44.71480000    -22.73520000      0.00000000 #  c1         cp         cp   
2       118.90000000     61.02260000    -34.99310000      0.00000000 #  cp         cp         cp   
3       117.94000000     35.15580000    -12.46820000      0.00000000 #  cp         cp       hpan   
4       123.42000000     73.67810000    -21.67870000      0.00000000 #  cp         cp         oc   
5       109.50000000     60.00000000      0.00000000      0.00000000 #  cp         oc         ct   
6       180.00000000    200.00000000      0.00000000      0.00000000 #  nt         ct         oc   

Dihedral Coeffs  # class2

1         8.36670000      0.00000000      1.19320000      0.00000000      0.00000000      0.00000000 #  cp         cp        cp         cp   
2         0.00000000      0.00000000      4.40720000      0.00000000      0.00000000      0.00000000 #  c1         cp        cp         cp   
3         0.00000000      0.00000000      3.96610000      0.00000000      0.00000000      0.00000000 #  cp         cp        cp       hpan   
4         0.00000000      0.00000000      1.87690000      0.00000000      0.00000000      0.00000000 #  hpan       cp        cp       hpan   
5         0.00000000      0.00000000      1.55900000      0.00000000      0.00000000      0.00000000 #  c1         cp        cp       hpan   
6         0.00000000      0.00000000      4.84980000      0.00000000      0.00000000      0.00000000 #  cp         cp        cp         oc   
7         0.00000000      0.00000000      1.72340000      0.00000000      0.00000000      0.00000000 #  hpan       cp        cp         oc   
8         0.00000000      0.00000000      1.80000000      0.00000000      0.00000000      0.00000000 #  cp         cp        oc         ct   
9         0.00000000      0.00000000      0.00000000      0.00000000      0.00000000      0.00000000 #  nt         ct        oc         cp   

Improper Coeffs  # class2

1         7.81530000      0.00000000 #  c1         cp        cp        cp      nb==3   
2         4.89120000      0.00000000 #  cp         cp        cp       hpan     nb==3   
3        13.04210000      0.00000000 #  cp         cp        cp        oc      nb==3   

BondBond Coeffs  # class2

1        12.06760000      1.50100000      1.41700000 #  c1         cp         cp   
2        68.28560000      1.41700000      1.41700000 #  cp         cp         cp   
3         1.07950000      1.41700000      1.09820000 #  cp         cp       hpan   
4        48.47540000      1.41700000      1.37680000 #  cp         cp         oc   
5         0.00000000      1.37680000      1.31300000 #  cp         oc         ct   
6         0.00000000      1.15800000      1.31300000 #  nt         ct         oc   

BondAngle Coeffs  # class2

1        47.05790000     31.07710000      1.50100000      1.41700000 #  c1         cp         cp   
2        28.87080000     28.87080000      1.41700000      1.41700000 #  cp         cp         cp   
3        20.00330000     24.21830000      1.41700000      1.09820000 #  cp         cp       hpan   
4        58.47900000    107.68060000      1.41700000      1.37680000 #  cp         cp         oc   
5         0.00000000      0.00000000      1.37680000      1.31300000 #  cp         oc         ct   
6         0.00000000      0.00000000      1.15800000      1.31300000 #  nt         ct         oc   

AngleAngleTorsion Coeffs  # class2

1         0.00000000    118.90000000    118.90000000 #  cp         cp        cp         cp   
2       -14.40970000    120.05000000    118.90000000 #  c1         cp        cp         cp   
3        -4.81410000    118.90000000    117.94000000 #  cp         cp        cp       hpan   
4         0.35980000    117.94000000    117.94000000 #  hpan       cp        cp       hpan   
5         4.44440000    120.05000000    117.94000000 #  c1         cp        cp       hpan   
6       -21.02470000    118.90000000    123.42000000 #  cp         cp        cp         oc   
7         4.22960000    117.94000000    123.42000000 #  hpan       cp        cp         oc   
8         0.00000000    123.42000000    109.50000000 #  cp         cp        oc         ct   
9         0.00000000    180.00000000    109.50000000 #  nt         ct        oc         cp   

EndBondTorsion Coeffs  # class2

1        -0.11850000      6.32040000      0.00000000     -0.11850000      6.32040000      0.00000000      1.41700000      1.41700000 #  cp         cp        cp         cp   
2         0.00000000      0.24210000      0.00000000      0.00000000     -0.69180000      0.00000000      1.50100000      1.41700000 #  c1         cp        cp         cp   
3         0.00000000     -6.89580000      0.00000000      0.00000000     -0.46690000      0.00000000      1.41700000      1.09820000 #  cp         cp        cp       hpan   
4         0.00000000     -0.68900000      0.00000000      0.00000000     -0.68900000      0.00000000      1.09820000      1.09820000 #  hpan       cp        cp       hpan   
5         0.00000000     -1.79700000      0.00000000      0.00000000     -0.48790000      0.00000000      1.50100000      1.09820000 #  c1         cp        cp       hpan   
6         0.00000000      0.26550000      0.00000000      0.00000000      4.89050000      0.00000000      1.41700000      1.37680000 #  cp         cp        cp         oc   
7         0.00000000     -1.58670000      0.00000000      0.00000000      4.26410000      0.00000000      1.09820000      1.37680000 #  hpan       cp        cp         oc   
8         0.00000000      0.00000000      0.00000000      0.00000000      0.00000000      0.00000000      1.41700000      1.31300000 #  cp         cp        oc         ct   
9         0.00000000      0.00000000      0.00000000      0.00000000      0.00000000      0.00000000      1.15800000      1.37680000 #  nt         ct        oc         cp   

MiddleBondTorsion Coeffs  # class2

1        27.59890000     -2.31200000      0.00000000      1.41700000 #  cp         cp        cp         cp   
2         0.00000000      9.17920000      0.00000000      1.41700000 #  c1         cp        cp         cp   
3         0.00000000     -1.15210000      0.00000000      1.41700000 #  cp         cp        cp       hpan   
4         0.00000000      4.82280000      0.00000000      1.41700000 #  hpan       cp        cp       hpan   
5         0.00000000      3.94210000      0.00000000      1.41700000 #  c1         cp        cp       hpan   
6         0.00000000      4.82550000      0.00000000      1.41700000 #  cp         cp        cp         oc   
7         0.00000000      5.54320000      0.00000000      1.41700000 #  hpan       cp        cp         oc   
8         0.00000000      0.00000000      0.00000000      1.37680000 #  cp         cp        oc         ct   
9         0.00000000      0.00000000      0.00000000      1.31300000 #  nt         ct        oc         cp   

BondBond13 Coeffs  # class2

1        53.00000000      1.41700000      1.41700000 #  cp         cp        cp         cp   
2         2.50850000      1.50100000      1.41700000 #  c1         cp        cp         cp   
3        -6.27410000      1.41700000      1.09820000 #  cp         cp        cp       hpan   
4        -1.70770000      1.09820000      1.09820000 #  hpan       cp        cp       hpan   
5         0.87430000      1.50100000      1.09820000 #  c1         cp        cp       hpan   
6        -2.24360000      1.41700000      1.37680000 #  cp         cp        cp         oc   
7         2.05170000      1.09820000      1.37680000 #  hpan       cp        cp         oc   
8         0.00000000      1.41700000      1.31300000 #  cp         cp        oc         ct   
9         0.00000000      1.15800000      1.37680000 #  nt         ct        oc         cp   

AngleTorsion Coeffs  # class2

1         1.97670000      1.02390000      0.00000000      1.97670000      1.02390000      0.00000000    118.90000000    118.90000000 #  cp         cp        cp         cp   
2         0.00000000     -4.46830000      0.00000000      0.00000000      3.89870000      0.00000000    120.05000000    118.90000000 #  c1         cp        cp         cp   
3         0.00000000      2.50140000      0.00000000      0.00000000      2.71470000      0.00000000    118.90000000    117.94000000 #  cp         cp        cp       hpan   
4         0.00000000      2.45010000      0.00000000      0.00000000      2.45010000      0.00000000    117.94000000    117.94000000 #  hpan       cp        cp       hpan   
5         0.00000000     -0.12420000      0.00000000      0.00000000      3.46010000      0.00000000    120.05000000    117.94000000 #  c1         cp        cp       hpan   
6         0.00000000     10.01550000      0.00000000      0.00000000      1.74040000      0.00000000    118.90000000    123.42000000 #  cp         cp        cp         oc   
7         0.00000000      1.87290000      0.00000000      0.00000000      2.57060000      0.00000000    117.94000000    123.42000000 #  hpan       cp        cp         oc   
8         0.00000000      0.00000000      0.00000000      0.00000000      0.00000000      0.00000000    123.42000000    109.50000000 #  cp         cp        oc         ct   
9         0.00000000      0.00000000      0.00000000      0.00000000      0.00000000      0.00000000    180.00000000    109.50000000 #  nt         ct        oc         cp   

AngleAngle Coeffs  # class2

1         0.00000000      0.00000000      0.00000000    120.05000000    118.90000000    120.05000000 #  c1         cp        cp        cp      nb==3   
2         0.00000000      0.00000000      0.00000000    118.90000000    117.94000000    117.94000000 #  cp         cp        cp       hpan     nb==3   
3         0.00000000      0.00000000      0.00000000    118.90000000    123.42000000    123.42000000 #  cp         cp        cp        oc      nb==3   

Atoms # full

 1  1  2    0.000000   -3.233403571     1.328207143    -0.351821429      0    0    0 #  cp/C
 2  1  2   -0.126800   -2.698703571     0.083607143    -0.019321429      0    0    0 #  cp/C
 3  1  2   -0.126800   -3.547103571    -0.986592857     0.264478571      0    0    0 #  cp/C
 4  1  2    0.026500   -4.930103571    -0.812092857     0.215878571      0    0    0 #  cp/C
 5  1  2   -0.126800   -5.464803571     0.432507143    -0.116521429      0    0    0 #  cp/C
 6  1  2   -0.126800   -4.616403571     1.502707143    -0.400421429      0    0    0 #  cp/C
 7  1  6   -0.094000   -5.754203571    -1.851692857     0.491578571      0    0    0 #  oc/O
 8  1  3    0.187900   -7.152303571    -1.675292857     0.442478571      0    0    0 #  ct/C
 9  1  5   -0.120400   -8.300503571    -1.530492857     0.402078571      0    0    0 #  nt/N
10  1  4    0.126800   -3.125503571    -1.968192857     0.526578571      0    0    0 #  hpan/H
11  1  4    0.126800   -1.608003571    -0.053892857     0.019078571      0    0    0 #  hpan/H
12  1  4    0.126800   -6.555503571     0.570107143    -0.154821429      0    0    0 #  hpan/H
13  1  4    0.126800   -5.038003571     2.484307143    -0.662621429      0    0    0 #  hpan/H
14  1  1   -0.053000   -2.322903571     2.476807143    -0.656621429      0    0    0 #  c1/C
15  2  2    0.000000    5.959096429     1.328207143    -0.351821429      0    0    0 #  cp/C
16  2  2   -0.126800    6.493796429     0.083607143    -0.019321429      0    0    0 #  cp/C
17  2  2   -0.126800    5.645396429    -0.986592857     0.264478571      0    0    0 #  cp/C
18  2  2    0.026500    4.262396429    -0.812092857     0.215878571      0    0    0 #  cp/C
19  2  2   -0.126800    3.727696429     0.432507143    -0.116521429      0    0    0 #  cp/C
20  2  2   -0.126800    4.576096429     1.502707143    -0.400421429      0    0    0 #  cp/C
21  2  6   -0.094000    3.438296429    -1.851692857     0.491578571      0    0    0 #  oc/O
22  2  3    0.187900    2.040196429    -1.675292857     0.442478571      0    0    0 #  ct/C
23  2  5   -0.120400    0.891996429    -1.530492857     0.402078571      0    0    0 #  nt/N
24  2  4    0.126800    6.066996429    -1.968192857     0.526578571      0    0    0 #  hpan/H
25  2  4    0.126800    7.584496429    -0.053892857     0.019078571      0    0    0 #  hpan/H
26  2  4    0.126800    2.636996429     0.570107143    -0.154821429      0    0    0 #  hpan/H
27  2  4    0.126800    4.154396429     2.484307143    -0.662621429      0    0    0 #  hpan/H
28  2  1   -0.053000    6.869596429     2.476807143    -0.656621429      0    0    0 #  c1/C

Bonds

  1   2     1     2  
  2   2     1     6  
  3   1    14     1  
  4   2     2     3  
  5   3     2    11  
  6   2     3     4  
  7   3     3    10  
  8   2     4     5  
  9   4     4     7  
 10   2     5     6  
 11   3     5    12  
 12   3     6    13  
 13   6     8     7  
 14   5     8     9  
 15   2    15    16  
 16   2    15    20  
 17   1    28    15  
 18   2    16    17  
 19   3    16    25  
 20   2    17    18  
 21   3    17    24  
 22   2    18    19  
 23   4    18    21  
 24   2    19    20  
 25   3    19    26  
 26   3    20    27  
 27   6    22    21  
 28   5    22    23  

Angles

  1   2     2     1     6  
  2   1    14     1     6  
  3   1    14     1     2  
  4   3     1     2    11  
  5   2     1     2     3  
  6   3     3     2    11  
  7   3     4     3    10  
  8   2     2     3     4  
  9   3     2     3    10  
 10   4     3     4     7  
 11   4     5     4     7  
 12   2     3     4     5  
 13   2     4     5     6  
 14   3     4     5    12  
 15   3     6     5    12  
 16   2     1     6     5  
 17   3     5     6    13  
 18   3     1     6    13  
 19   5     4     7     8  
 20   6     9     8     7  
 21   2    16    15    20  
 22   1    28    15    16  
 23   1    28    15    20  
 24   3    15    16    25  
 25   2    15    16    17  
 26   3    17    16    25  
 27   2    16    17    18  
 28   3    16    17    24  
 29   3    18    17    24  
 30   4    19    18    21  
 31   2    17    18    19  
 32   4    17    18    21  
 33   2    18    19    20  
 34   3    18    19    26  
 35   3    20    19    26  
 36   2    15    20    19  
 37   3    19    20    27  
 38   3    15    20    27  
 39   5    18    21    22  
 40   6    23    22    21  

Dihedrals

  1   3     6     1     2    11  
  2   3     2     1     6    13  
  3   1     2     1     6     5  
  4   1     3     2     1     6  
  5   1     1     2     3     4  
  6   3     1     2     3    10  
  7   5    14     1     2    11  
  8   2    14     1     2     3  
  9   1     2     3     4     5  
 10   4    10     3     2    11  
 11   6     2     3     4     7  
 12   3     4     3     2    11  
 13   3     5     4     3    10  
 14   7    12     5     4     7  
 15   1     3     4     5     6  
 16   3     3     4     5    12  
 17   7    10     3     4     7  
 18   8     5     4     7     8  
 19   8     3     4     7     8  
 20   3     4     5     6    13  
 21   6     6     5     4     7  
 22   4    12     5     6    13  
 23   1     1     6     5     4  
 24   3     1     6     5    12  
 25   2    14     1     6     5  
 26   5    14     1     6    13  
 27   9     9     8     7     4  
 28   3    20    15    16    25  
 29   3    16    15    20    27  
 30   1    16    15    20    19  
 31   5    28    15    16    25  
 32   1    17    16    15    20  
 33   1    15    16    17    18  
 34   3    15    16    17    24  
 35   2    28    15    16    17  
 36   6    16    17    18    21  
 37   4    24    17    16    25  
 38   3    18    17    16    25  
 39   1    16    17    18    19  
 40   8    19    18    21    22  
 41   1    17    18    19    20  
 42   3    17    18    19    26  
 43   3    19    18    17    24  
 44   7    24    17    18    21  
 45   8    17    18    21    22  
 46   7    26    19    18    21  
 47   4    26    19    20    27  
 48   6    20    19    18    21  
 49   3    18    19    20    27  
 50   5    28    15    20    27  
 51   1    15    20    19    18  
 52   2    28    15    20    19  
 53   3    15    20    19    26  
 54   9    23    22    21    18  

Impropers

  1   1    14     1     2     6  
  2   2     1     2     3    11  
  3   2     2     3     4    10  
  4   3     3     4     5     7  
  5   2     4     5     6    12  
  6   2     1     6     5    13  
  7   1    28    15    16    20  
  8   2    15    16    17    25  
  9   2    16    17    18    24  
 10   3    17    18    19    21  
 11   2    18    19    20    26  
 12   2    15    20    19    27  
