HEADER,  pre2.mol2  read w/ mol2SYBYL2lmp > atom_typing v1.4 / 2 May 2023 w/PCFF-IFF atom-types > all2lmp: v1.7 / 2 May 2023  Class: 2

42 atoms
43 bonds
63 angles
85 dihedrals
19 impropers

8 atom types
10 bond types
12 angle types
16 dihedral types
4 improper types

-8.923892857 10.606407143 xlo xhi
-3.180895238 4.374904762 ylo yhi
-2.441997619 2.921702381 zlo zhi

Masses

1   12.01115000  #  c1   
2   12.01100000  #  c_2  
3   12.01115000  #  cp   
4   12.01115000  #  ct   
5    1.00797000  #  hpan 
6   14.00670000  #  n=1  
7   14.00670000  #  nt   
8   15.99940000  #  oc   

Pair Coeffs  # lj/class2/coul/long

1         0.05400000      4.01000000 #  c1   
2         0.12000000      3.81000000 #  c_2  
3         0.06400000      4.01000000 #  cp   
4         0.06400000      4.01000000 #  ct   
5         0.02000000      2.30000000 #  hpan 
6         0.06200000      4.12100000 #  n=1  
7         0.06500000      3.57000000 #  nt   
8         0.24000000      3.53500000 #  oc   

Bond Coeffs  # class2

1         1.50100000    321.90210000   -521.82080000    572.16280000 #  c1          cp   
2         1.40500000    296.29960000      0.00000000      0.00000000 #  c_2        n=1   
3         1.15800000    880.00000000      0.00000000      0.00000000 #  c_2         nt   
4         1.34000000    400.00000000      0.00000000      0.00000000 #  c_2         oc   
5         1.41700000    470.83610000   -627.61790000   1327.63450000 #  cp          cp   
6         1.09820000    372.82510000   -803.45260000    894.31730000 #  cp        hpan   
7         1.37680000    428.87980000   -738.23510000   1114.96550000 #  cp          oc   
8         1.35500000    342.24480000      0.00000000      0.00000000 #  ct         n=1   
9         1.15800000    880.00000000      0.00000000      0.00000000 #  ct          nt   
10        1.31300000    367.81640000      0.00000000      0.00000000 #  ct          oc   

Angle Coeffs  # class2

1       120.05000000     44.71480000    -22.73520000      0.00000000 #  c1         cp         cp   
2       120.00000000     50.00000000      0.00000000      0.00000000 #  c_2       n=1         ct   
3       109.50000000     60.00000000      0.00000000      0.00000000 #  c_2        oc         cp   
4       118.90000000     61.02260000    -34.99310000      0.00000000 #  cp         cp         cp   
5       117.94000000     35.15580000    -12.46820000      0.00000000 #  cp         cp       hpan   
6       123.42000000     73.67810000    -21.67870000      0.00000000 #  cp         cp         oc   
7       109.50000000     60.00000000      0.00000000      0.00000000 #  cp         oc         ct   
8       120.00000000    102.00000000      0.00000000      0.00000000 #  n=1       c_2         nt   
9       110.00000000    122.00000000      0.00000000      0.00000000 #  n=1       c_2         oc   
10      180.00000000    200.00000000      0.00000000      0.00000000 #  n=1        ct         oc   
11      110.00000000    122.00000000      0.00000000      0.00000000 #  nt        c_2         oc   
12      180.00000000    200.00000000      0.00000000      0.00000000 #  nt         ct         oc   

Dihedral Coeffs  # class2

1         8.36670000      0.00000000      1.19320000      0.00000000      0.00000000      0.00000000 #  cp         cp        cp         cp   
2         0.00000000      0.00000000      4.40720000      0.00000000      0.00000000      0.00000000 #  c1         cp        cp         cp   
3         0.00000000      0.00000000      3.96610000      0.00000000      0.00000000      0.00000000 #  cp         cp        cp       hpan   
4         0.00000000      0.00000000      1.87690000      0.00000000      0.00000000      0.00000000 #  hpan       cp        cp       hpan   
5         0.00000000      0.00000000      1.55900000      0.00000000      0.00000000      0.00000000 #  c1         cp        cp       hpan   
6         0.00000000      0.00000000      4.84980000      0.00000000      0.00000000      0.00000000 #  cp         cp        cp         oc   
7         0.00000000      0.00000000      1.72340000      0.00000000      0.00000000      0.00000000 #  hpan       cp        cp         oc   
8         0.00000000      0.00000000      1.80000000      0.00000000      0.00000000      0.00000000 #  cp         cp        oc         ct   
9         0.00000000      0.00000000      0.90000000      0.00000000      0.00000000      0.00000000 #  nt        c_2       n=1         ct   
10        0.00000000      0.00000000      0.90000000      0.00000000      0.00000000      0.00000000 #  oc        c_2       n=1         ct   
11        0.00000000      0.00000000      0.00000000      0.00000000      0.00000000      0.00000000 #  c_2       n=1        ct         oc   
12        0.00000000      0.00000000      2.25000000      0.00000000      0.00000000      0.00000000 #  n=1       c_2        oc         cp   
13        0.00000000      0.00000000      2.25000000      0.00000000      0.00000000      0.00000000 #  nt        c_2        oc         cp   
14        0.00000000      0.00000000      1.80000000      0.00000000      0.00000000      0.00000000 #  cp         cp        oc        c_2   
15        0.00000000      0.00000000      0.00000000      0.00000000      0.00000000      0.00000000 #  n=1        ct        oc         cp   
16        0.00000000      0.00000000      0.00000000      0.00000000      0.00000000      0.00000000 #  nt         ct        oc         cp   

Improper Coeffs  # class2

1         7.81530000      0.00000000 #  c1         cp        cp        cp      nb==3   
2         4.89120000      0.00000000 #  cp         cp        cp       hpan     nb==3   
3        13.04210000      0.00000000 #  cp         cp        cp        oc      nb==3   
4        36.00000000      0.00000000 #  n=1       c_2        nt        oc      nb==3   

BondBond Coeffs  # class2

1        12.06760000      1.50100000      1.41700000 #  c1         cp         cp   
2         0.00000000      1.40500000      1.35500000 #  c_2       n=1         ct   
3         0.00000000      1.34000000      1.37680000 #  c_2        oc         cp   
4        68.28560000      1.41700000      1.41700000 #  cp         cp         cp   
5         1.07950000      1.41700000      1.09820000 #  cp         cp       hpan   
6        48.47540000      1.41700000      1.37680000 #  cp         cp         oc   
7         0.00000000      1.37680000      1.31300000 #  cp         oc         ct   
8         0.00000000      1.40500000      0.00000000 #  n=1       c_2         nt   
9         0.00000000      1.40500000      1.34000000 #  n=1       c_2         oc   
10        0.00000000      1.35500000      1.31300000 #  n=1        ct         oc   
11        0.00000000      0.00000000      1.34000000 #  nt        c_2         oc   
12        0.00000000      1.15800000      1.31300000 #  nt         ct         oc   

BondAngle Coeffs  # class2

1        47.05790000     31.07710000      1.50100000      1.41700000 #  c1         cp         cp   
2         0.00000000      0.00000000      1.40500000      1.35500000 #  c_2       n=1         ct   
3         0.00000000      0.00000000      1.34000000      1.37680000 #  c_2        oc         cp   
4        28.87080000     28.87080000      1.41700000      1.41700000 #  cp         cp         cp   
5        20.00330000     24.21830000      1.41700000      1.09820000 #  cp         cp       hpan   
6        58.47900000    107.68060000      1.41700000      1.37680000 #  cp         cp         oc   
7         0.00000000      0.00000000      1.37680000      1.31300000 #  cp         oc         ct   
8         0.00000000      0.00000000      1.40500000      0.00000000 #  n=1       c_2         nt   
9         0.00000000      0.00000000      1.40500000      1.34000000 #  n=1       c_2         oc   
10        0.00000000      0.00000000      1.35500000      1.31300000 #  n=1        ct         oc   
11        0.00000000      0.00000000      0.00000000      1.34000000 #  nt        c_2         oc   
12        0.00000000      0.00000000      1.15800000      1.31300000 #  nt         ct         oc   

AngleAngleTorsion Coeffs  # class2

1         0.00000000    118.90000000    118.90000000 #  cp         cp        cp         cp   
2       -14.40970000    120.05000000    118.90000000 #  c1         cp        cp         cp   
3        -4.81410000    118.90000000    117.94000000 #  cp         cp        cp       hpan   
4         0.35980000    117.94000000    117.94000000 #  hpan       cp        cp       hpan   
5         4.44440000    120.05000000    117.94000000 #  c1         cp        cp       hpan   
6       -21.02470000    118.90000000    123.42000000 #  cp         cp        cp         oc   
7         4.22960000    117.94000000    123.42000000 #  hpan       cp        cp         oc   
8         0.00000000    123.42000000    109.50000000 #  cp         cp        oc         ct   
9         0.00000000    120.00000000    120.00000000 #  nt        c_2       n=1         ct   
10        0.00000000    120.00000000    120.00000000 #  oc        c_2       n=1         ct   
11        0.00000000    120.00000000    180.00000000 #  c_2       n=1        ct         oc   
12        0.00000000    110.00000000    109.50000000 #  n=1       c_2        oc         cp   
13        0.00000000    110.00000000    109.50000000 #  nt        c_2        oc         cp   
14        0.00000000    123.42000000    109.50000000 #  cp         cp        oc        c_2   
15        0.00000000    180.00000000    109.50000000 #  n=1        ct        oc         cp   
16        0.00000000    180.00000000    109.50000000 #  nt         ct        oc         cp   

EndBondTorsion Coeffs  # class2

1        -0.11850000      6.32040000      0.00000000     -0.11850000      6.32040000      0.00000000      1.41700000      1.41700000 #  cp         cp        cp         cp   
2         0.00000000      0.24210000      0.00000000      0.00000000     -0.69180000      0.00000000      1.50100000      1.41700000 #  c1         cp        cp         cp   
3         0.00000000     -6.89580000      0.00000000      0.00000000     -0.46690000      0.00000000      1.41700000      1.09820000 #  cp         cp        cp       hpan   
4         0.00000000     -0.68900000      0.00000000      0.00000000     -0.68900000      0.00000000      1.09820000      1.09820000 #  hpan       cp        cp       hpan   
5         0.00000000     -1.79700000      0.00000000      0.00000000     -0.48790000      0.00000000      1.50100000      1.09820000 #  c1         cp        cp       hpan   
6         0.00000000      0.26550000      0.00000000      0.00000000      4.89050000      0.00000000      1.41700000      1.37680000 #  cp         cp        cp         oc   
7         0.00000000     -1.58670000      0.00000000      0.00000000      4.26410000      0.00000000      1.09820000      1.37680000 #  hpan       cp        cp         oc   
8         0.00000000      0.00000000      0.00000000      0.00000000      0.00000000      0.00000000      1.41700000      1.31300000 #  cp         cp        oc         ct   
9         0.00000000      0.00000000      0.00000000      0.00000000      0.00000000      0.00000000      0.00000000      1.35500000 #  nt        c_2       n=1         ct   
10        0.00000000      0.00000000      0.00000000      0.00000000      0.00000000      0.00000000      1.34000000      1.35500000 #  oc        c_2       n=1         ct   
11        0.00000000      0.00000000      0.00000000      0.00000000      0.00000000      0.00000000      1.40500000      1.31300000 #  c_2       n=1        ct         oc   
12        0.00000000      0.00000000      0.00000000      0.00000000      0.00000000      0.00000000      1.40500000      1.37680000 #  n=1       c_2        oc         cp   
13        0.00000000      0.00000000      0.00000000      0.00000000      0.00000000      0.00000000      0.00000000      1.37680000 #  nt        c_2        oc         cp   
14        0.00000000      0.00000000      0.00000000      0.00000000      0.00000000      0.00000000      1.41700000      1.34000000 #  cp         cp        oc        c_2   
15        0.00000000      0.00000000      0.00000000      0.00000000      0.00000000      0.00000000      1.35500000      1.37680000 #  n=1        ct        oc         cp   
16        0.00000000      0.00000000      0.00000000      0.00000000      0.00000000      0.00000000      1.15800000      1.37680000 #  nt         ct        oc         cp   

MiddleBondTorsion Coeffs  # class2

1        27.59890000     -2.31200000      0.00000000      1.41700000 #  cp         cp        cp         cp   
2         0.00000000      9.17920000      0.00000000      1.41700000 #  c1         cp        cp         cp   
3         0.00000000     -1.15210000      0.00000000      1.41700000 #  cp         cp        cp       hpan   
4         0.00000000      4.82280000      0.00000000      1.41700000 #  hpan       cp        cp       hpan   
5         0.00000000      3.94210000      0.00000000      1.41700000 #  c1         cp        cp       hpan   
6         0.00000000      4.82550000      0.00000000      1.41700000 #  cp         cp        cp         oc   
7         0.00000000      5.54320000      0.00000000      1.41700000 #  hpan       cp        cp         oc   
8         0.00000000      0.00000000      0.00000000      1.37680000 #  cp         cp        oc         ct   
9         0.00000000      0.00000000      0.00000000      1.40500000 #  nt        c_2       n=1         ct   
10        0.00000000      0.00000000      0.00000000      1.40500000 #  oc        c_2       n=1         ct   
11        0.00000000      0.00000000      0.00000000      1.35500000 #  c_2       n=1        ct         oc   
12        0.00000000      0.00000000      0.00000000      1.34000000 #  n=1       c_2        oc         cp   
13        0.00000000      0.00000000      0.00000000      1.34000000 #  nt        c_2        oc         cp   
14        0.00000000      0.00000000      0.00000000      1.37680000 #  cp         cp        oc        c_2   
15        0.00000000      0.00000000      0.00000000      1.31300000 #  n=1        ct        oc         cp   
16        0.00000000      0.00000000      0.00000000      1.31300000 #  nt         ct        oc         cp   

BondBond13 Coeffs  # class2

1        53.00000000      1.41700000      1.41700000 #  cp         cp        cp         cp   
2         2.50850000      1.50100000      1.41700000 #  c1         cp        cp         cp   
3        -6.27410000      1.41700000      1.09820000 #  cp         cp        cp       hpan   
4        -1.70770000      1.09820000      1.09820000 #  hpan       cp        cp       hpan   
5         0.87430000      1.50100000      1.09820000 #  c1         cp        cp       hpan   
6        -2.24360000      1.41700000      1.37680000 #  cp         cp        cp         oc   
7         2.05170000      1.09820000      1.37680000 #  hpan       cp        cp         oc   
8         0.00000000      1.41700000      1.31300000 #  cp         cp        oc         ct   
9         0.00000000      0.00000000      1.35500000 #  nt        c_2       n=1         ct   
10        0.00000000      1.34000000      1.35500000 #  oc        c_2       n=1         ct   
11        0.00000000      1.40500000      1.31300000 #  c_2       n=1        ct         oc   
12        0.00000000      1.40500000      1.37680000 #  n=1       c_2        oc         cp   
13        0.00000000      0.00000000      1.37680000 #  nt        c_2        oc         cp   
14        0.00000000      1.41700000      1.34000000 #  cp         cp        oc        c_2   
15        0.00000000      1.35500000      1.37680000 #  n=1        ct        oc         cp   
16        0.00000000      1.15800000      1.37680000 #  nt         ct        oc         cp   

AngleTorsion Coeffs  # class2

1         1.97670000      1.02390000      0.00000000      1.97670000      1.02390000      0.00000000    118.90000000    118.90000000 #  cp         cp        cp         cp   
2         0.00000000     -4.46830000      0.00000000      0.00000000      3.89870000      0.00000000    120.05000000    118.90000000 #  c1         cp        cp         cp   
3         0.00000000      2.50140000      0.00000000      0.00000000      2.71470000      0.00000000    118.90000000    117.94000000 #  cp         cp        cp       hpan   
4         0.00000000      2.45010000      0.00000000      0.00000000      2.45010000      0.00000000    117.94000000    117.94000000 #  hpan       cp        cp       hpan   
5         0.00000000     -0.12420000      0.00000000      0.00000000      3.46010000      0.00000000    120.05000000    117.94000000 #  c1         cp        cp       hpan   
6         0.00000000     10.01550000      0.00000000      0.00000000      1.74040000      0.00000000    118.90000000    123.42000000 #  cp         cp        cp         oc   
7         0.00000000      1.87290000      0.00000000      0.00000000      2.57060000      0.00000000    117.94000000    123.42000000 #  hpan       cp        cp         oc   
8         0.00000000      0.00000000      0.00000000      0.00000000      0.00000000      0.00000000    123.42000000    109.50000000 #  cp         cp        oc         ct   
9         0.00000000      0.00000000      0.00000000      0.00000000      0.00000000      0.00000000    120.00000000    120.00000000 #  nt        c_2       n=1         ct   
10        0.00000000      0.00000000      0.00000000      0.00000000      0.00000000      0.00000000    120.00000000    120.00000000 #  oc        c_2       n=1         ct   
11        0.00000000      0.00000000      0.00000000      0.00000000      0.00000000      0.00000000    120.00000000    180.00000000 #  c_2       n=1        ct         oc   
12        0.00000000      0.00000000      0.00000000      0.00000000      0.00000000      0.00000000    110.00000000    109.50000000 #  n=1       c_2        oc         cp   
13        0.00000000      0.00000000      0.00000000      0.00000000      0.00000000      0.00000000    110.00000000    109.50000000 #  nt        c_2        oc         cp   
14        0.00000000      0.00000000      0.00000000      0.00000000      0.00000000      0.00000000    123.42000000    109.50000000 #  cp         cp        oc        c_2   
15        0.00000000      0.00000000      0.00000000      0.00000000      0.00000000      0.00000000    180.00000000    109.50000000 #  n=1        ct        oc         cp   
16        0.00000000      0.00000000      0.00000000      0.00000000      0.00000000      0.00000000    180.00000000    109.50000000 #  nt         ct        oc         cp   

AngleAngle Coeffs  # class2

1         0.00000000      0.00000000      0.00000000    120.05000000    118.90000000    120.05000000 #  c1         cp        cp        cp      nb==3   
2         0.00000000      0.00000000      0.00000000    118.90000000    117.94000000    117.94000000 #  cp         cp        cp       hpan     nb==3   
3         0.00000000      0.00000000      0.00000000    118.90000000    123.42000000    123.42000000 #  cp         cp        cp        oc      nb==3   
4         0.00000000      0.00000000      0.00000000    120.00000000    110.00000000    110.00000000 #  n=1       c_2        nt        oc      nb==3   

Atoms # full

 1  1  3    0.000000   -3.356792857     2.718804762    -0.476197619      0    0    0 #  cp/C
 2  1  3   -0.126800   -2.822092857     1.474204762    -0.143697619      0    0    0 #  cp/C
 3  1  3   -0.126800   -3.670492857     0.404004762     0.140102381      0    0    0 #  cp/C
 4  1  3    0.026500   -5.053492857     0.578504762     0.091502381      0    0    0 #  cp/C
 5  1  3   -0.126800   -5.588192857     1.823104762    -0.240897619      0    0    0 #  cp/C
 6  1  3   -0.126800   -4.739792857     2.893304762    -0.524797619      0    0    0 #  cp/C
 7  1  8   -0.026500   -5.877592857    -0.461095238     0.367202381      0    0    0 #  oc/O
 8  1  2    0.000000   -7.275692857    -0.284795238     0.318102381      0    0    0 #  c_2/C
 9  1  7    0.000000   -8.423892857    -0.139895238     0.277802381      0    0    0 #  nt/N
10  1  5    0.126800   -3.248892857    -0.577595238     0.402202381      0    0    0 #  hpan/H
11  1  5    0.126800   -1.731392857     1.336604762    -0.105297619      0    0    0 #  hpan/H
12  1  5    0.126800   -6.678892857     1.960704762    -0.279197619      0    0    0 #  hpan/H
13  1  5    0.126800   -5.161392857     3.874904762    -0.786997619      0    0    0 #  hpan/H
14  1  3    0.000000   -0.502592857    -1.342595238     0.215702381      0    0    0 #  cp/C
15  1  3   -0.126800   -1.143092857    -1.559995238     1.435602381      0    0    0 #  cp/C
16  1  3   -0.126800   -2.462992857    -2.010395238     1.459702381      0    0    0 #  cp/C
17  1  3    0.026500   -3.142392857    -2.243295238     0.264002381      0    0    0 #  cp/C
18  1  3   -0.126800   -2.501992857    -2.025795238    -0.955897619      0    0    0 #  cp/C
19  1  3   -0.126800   -1.181992857    -1.575395238    -0.979997619      0    0    0 #  cp/C
20  1  8   -0.094000   -4.424592857    -2.680895238     0.287402381      0    0    0 #  oc/O
21  1  4    0.187900   -5.486092857    -1.752895238     0.298602381      0    0    0 #  ct/C
22  1  6   -0.120400   -6.357892857    -0.990795238     0.307802381      0    0    0 #  n=1/N
23  1  5    0.126800   -2.968092857    -2.181995238     2.421702381      0    0    0 #  hpan/H
24  1  5    0.126800   -0.607292857    -1.376195238     2.378502381      0    0    0 #  hpan/H
25  1  5    0.126800   -3.037792857    -2.209495238    -1.898797619      0    0    0 #  hpan/H
26  1  5    0.126800   -0.676892857    -1.403895238    -1.941997619      0    0    0 #  hpan/H
27  1  1   -0.053000   -2.446292857     3.867404762    -0.780897619      0    0    0 #  c1/C
28  1  1   -0.053000    0.914007143    -0.859195238     0.189802381      0    0    0 #  c1/C
29  2  3    0.000000    8.481007143     1.667104762    -0.476197619      0    0    0 #  cp/C
30  2  3   -0.126800    9.015707143     0.422504762    -0.143697619      0    0    0 #  cp/C
31  2  3   -0.126800    8.167307143    -0.647695238     0.140102381      0    0    0 #  cp/C
32  2  3    0.026500    6.784307143    -0.473195238     0.091502381      0    0    0 #  cp/C
33  2  3   -0.126800    6.249607143     0.771404762    -0.240897619      0    0    0 #  cp/C
34  2  3   -0.126800    7.098007143     1.841604762    -0.524797619      0    0    0 #  cp/C
35  2  8   -0.094000    5.960207143    -1.512795238     0.367202381      0    0    0 #  oc/O
36  2  4    0.187900    4.562207143    -1.336395238     0.318102381      0    0    0 #  ct/C
37  2  7   -0.120400    3.414007143    -1.191595238     0.277802381      0    0    0 #  nt/N
38  2  5    0.126800    8.589007143    -1.629195238     0.402202381      0    0    0 #  hpan/H
39  2  5    0.126800   10.106407143     0.285004762    -0.105297619      0    0    0 #  hpan/H
40  2  5    0.126800    5.158907143     0.909004762    -0.279197619      0    0    0 #  hpan/H
41  2  5    0.126800    6.676407143     2.823204762    -0.786997619      0    0    0 #  hpan/H
42  2  1   -0.053000    9.391507143     2.815704762    -0.780897619      0    0    0 #  c1/C

Bonds

  1   5     1     2  
  2   5     1     6  
  3   1    27     1  
  4   5     2     3  
  5   6     2    11  
  6   5     3     4  
  7   6     3    10  
  8   5     4     5  
  9   7     4     7  
 10   5     5     6  
 11   6     5    12  
 12   6     6    13  
 13   4     8     7  
 14   3     8     9  
 15   2     8    22  
 16   5    14    15  
 17   5    14    19  
 18   1    28    14  
 19   5    15    16  
 20   6    15    24  
 21   5    16    17  
 22   6    16    23  
 23   5    17    18  
 24   7    17    20  
 25   5    18    19  
 26   6    18    25  
 27   6    19    26  
 28   10   21    20  
 29   8    21    22  
 30   5    29    30  
 31   5    29    34  
 32   1    42    29  
 33   5    30    31  
 34   6    30    39  
 35   5    31    32  
 36   6    31    38  
 37   5    32    33  
 38   7    32    35  
 39   5    33    34  
 40   6    33    40  
 41   6    34    41  
 42   10   36    35  
 43   9    36    37  

Angles

  1   4     2     1     6  
  2   1    27     1     2  
  3   1    27     1     6  
  4   5     1     2    11  
  5   4     1     2     3  
  6   5     3     2    11  
  7   5     4     3    10  
  8   4     2     3     4  
  9   5     2     3    10  
 10   6     3     4     7  
 11   6     5     4     7  
 12   4     3     4     5  
 13   4     4     5     6  
 14   5     4     5    12  
 15   5     6     5    12  
 16   4     1     6     5  
 17   5     5     6    13  
 18   5     1     6    13  
 19   3     8     7     4  
 20   9    22     8     7  
 21   11    9     8     7  
 22   8    22     8     9  
 23   1    28    14    19  
 24   4    15    14    19  
 25   1    28    14    15  
 26   5    14    15    24  
 27   4    14    15    16  
 28   5    16    15    24  
 29   5    17    16    23  
 30   4    15    16    17  
 31   5    15    16    23  
 32   6    16    17    20  
 33   6    18    17    20  
 34   4    16    17    18  
 35   4    17    18    19  
 36   5    17    18    25  
 37   5    19    18    25  
 38   4    14    19    18  
 39   5    18    19    26  
 40   5    14    19    26  
 41   7    17    20    21  
 42   10   22    21    20  
 43   2     8    22    21  
 44   4    30    29    34  
 45   1    42    29    34  
 46   1    42    29    30  
 47   4    29    30    31  
 48   5    29    30    39  
 49   5    31    30    39  
 50   4    30    31    32  
 51   5    32    31    38  
 52   5    30    31    38  
 53   6    31    32    35  
 54   6    33    32    35  
 55   4    31    32    33  
 56   5    34    33    40  
 57   4    32    33    34  
 58   5    32    33    40  
 59   5    29    34    41  
 60   4    29    34    33  
 61   5    33    34    41  
 62   7    32    35    36  
 63   12   37    36    35  

Dihedrals

  1   3     2     1     6    13  
  2   1     2     1     6     5  
  3   3     6     1     2    11  
  4   1     1     2     3     4  
  5   2    27     1     2     3  
  6   1     3     2     1     6  
  7   3     1     2     3    10  
  8   5    27     1     2    11  
  9   4    10     3     2    11  
 10   3     4     3     2    11  
 11   1     2     3     4     5  
 12   6     2     3     4     7  
 13   7    12     5     4     7  
 14   1     3     4     5     6  
 15   14    5     4     7     8  
 16   14    3     4     7     8  
 17   3     5     4     3    10  
 18   3     3     4     5    12  
 19   7    10     3     4     7  
 20   6     6     5     4     7  
 21   4    12     5     6    13  
 22   3     4     5     6    13  
 23   3     1     6     5    12  
 24   5    27     1     6    13  
 25   1     1     6     5     4  
 26   2    27     1     6     5  
 27   13    9     8     7     4  
 28   12   22     8     7     4  
 29   9     9     8    22    21  
 30   10    7     8    22    21  
 31   3    15    14    19    26  
 32   1    15    14    19    18  
 33   3    19    14    15    24  
 34   1    14    15    16    17  
 35   3    14    15    16    23  
 36   1    16    15    14    19  
 37   2    28    14    15    16  
 38   5    28    14    15    24  
 39   6    15    16    17    20  
 40   3    17    16    15    24  
 41   1    15    16    17    18  
 42   4    23    16    15    24  
 43   1    16    17    18    19  
 44   8    18    17    20    21  
 45   8    16    17    20    21  
 46   3    16    17    18    25  
 47   3    18    17    16    23  
 48   7    23    16    17    20  
 49   7    25    18    17    20  
 50   4    25    18    19    26  
 51   3    17    18    19    26  
 52   6    19    18    17    20  
 53   3    14    19    18    25  
 54   5    28    14    19    26  
 55   2    28    14    19    18  
 56   1    14    19    18    17  
 57   15   22    21    20    17  
 58   11    8    22    21    20  
 59   3    34    29    30    39  
 60   3    30    29    34    41  
 61   1    30    29    34    33  
 62   2    42    29    30    31  
 63   1    29    30    31    32  
 64   5    42    29    30    39  
 65   3    29    30    31    38  
 66   1    31    30    29    34  
 67   1    30    31    32    33  
 68   4    38    31    30    39  
 69   6    30    31    32    35  
 70   3    32    31    30    39  
 71   8    31    32    35    36  
 72   3    31    32    33    40  
 73   3    33    32    31    38  
 74   7    38    31    32    35  
 75   7    40    33    32    35  
 76   8    33    32    35    36  
 77   1    31    32    33    34  
 78   4    40    33    34    41  
 79   3    32    33    34    41  
 80   6    34    33    32    35  
 81   2    42    29    34    33  
 82   3    29    34    33    40  
 83   5    42    29    34    41  
 84   1    29    34    33    32  
 85   16   37    36    35    32  

Impropers

  1   1    27     1     2     6  
  2   2     1     2     3    11  
  3   2     2     3     4    10  
  4   3     3     4     5     7  
  5   2     4     5     6    12  
  6   2     1     6     5    13  
  7   4    22     8     9     7  
  8   1    28    14    15    19  
  9   2    14    15    16    24  
 10   2    15    16    17    23  
 11   3    16    17    18    20  
 12   2    17    18    19    25  
 13   2    14    19    18    26  
 14   1    42    29    30    34  
 15   2    29    30    31    39  
 16   2    30    31    32    38  
 17   3    31    32    33    35  
 18   2    32    33    34    40  
 19   2    29    34    33    41  
