LAMMPS data file. msi2lmp v3.9.6 / 11 Sep 2014 / CGCMM for Cellulose-supercell > all2lmp: v1.19 / 5 June 2024  Class: 2

1512 atoms
1584 bonds
2952 angles
4752 dihedrals
1728 impropers

7 atom types
11 bond types
23 angle types
39 dihedral types
17 improper types

-3.115362400 20.236637600 xlo xhi
-2.036867380 22.405541185 ylo yhi
 0.040433113 20.800433113 zlo zhi
-2.806469760 0.000000000 0.000000000 xy xz yz

Atom Type Labels

 1  c1
 2  c2
 3  coh
 4  hc
 5  ho
 6  oc
 7  oh

Bond Type Labels

 1  c1-c1
 2  c1-c2
 3  c1-coh
 4  c1-hc
 5  c1-oc
 6  c1-oh
 7  c2-hc
 8  c2-oh
 9  coh-hc
10  coh-oc
11  ho-oh

Angle Type Labels

 1  c1-c1-c1
 2  c1-c1-c2
 3  c1-c1-coh
 4  c1-c1-hc
 5  c1-c1-oc
 6  c1-c1-oh
 7  c1-c2-hc
 8  c1-c2-oh
 9  c1-coh-hc
10  c1-coh-oc
11  c1-oc-coh
12  c1-oh-ho
13  c2-c1-hc
14  c2-c1-oc
15  c2-oh-ho
16  coh-c1-hc
17  coh-c1-oh
18  hc-c1-oc
19  hc-c1-oh
20  hc-c2-hc
21  hc-c2-oh
22  hc-coh-oc
23  oc-coh-oc

Dihedral Type Labels

 1  c1-c1-c1-c1
 2  c1-c1-c1-c2
 3  c1-c1-c1-coh
 4  hc-c1-c1-hc
 5  c1-c1-c1-hc
 6  c2-c1-c1-hc
 7  coh-c1-c1-hc
 8  c1-c1-c1-oc
 9  c2-c1-c1-oc
10  oc-c1-c1-oc
11  hc-c1-c1-oc
12  coh-c1-c1-oh
13  oc-c1-c1-oh
14  c1-c1-c1-oh
15  hc-c1-c1-oh
16  oh-c1-c1-oh
17  hc-c1-c2-hc
18  c1-c1-c2-hc
19  oc-c1-c2-oh
20  c1-c1-c2-oh
21  hc-c1-c2-oh
22  hc-c1-coh-hc
23  c1-c1-coh-hc
24  c1-c1-coh-oc
25  hc-c1-coh-oc
26  c2-c1-oc-coh
27  c1-c1-oc-coh
28  c1-c1-oh-ho
29  hc-c1-oh-ho
30  coh-c1-oh-ho
31  hc-c2-c1-oc
32  c1-c2-oh-ho
33  hc-c2-oh-ho
34  oc-coh-c1-oh
35  hc-coh-c1-oh
36  c1-coh-oc-c1
37  hc-c1-oc-coh
38  hc-coh-oc-c1
39  oc-coh-oc-c1

Improper Type Labels

 1  c1-c1-c1-hc-nb!=3
 2  c1-c1-c1-oc-nb!=3
 3  c1-c1-c1-oh-nb!=3
 4  c1-c1-c2-hc-nb!=3
 5  c1-c1-c2-oc-nb!=3
 6  c1-c1-coh-hc-nb!=3
 7  c1-c1-coh-oh-nb!=3
 8  c1-c1-hc-oc-nb!=3
 9  c1-c1-hc-oh-nb!=3
10  c1-c2-hc-hc-nb!=3
11  c1-c2-hc-oh-nb!=3
12  c1-coh-hc-oc-nb!=3
13  c1-coh-oc-oc-nb!=3
14  c2-c1-hc-oc-nb!=3
15  coh-c1-hc-oh-nb!=3
16  hc-c2-hc-oh-nb!=3
17  hc-coh-oc-oc-nb!=3

Masses

1   12.01115000  #  c1   
2   12.01115000  #  c2   
3   12.01115000  #  coh  
4    1.00797000  #  hc   
5    1.00797000  #  ho   
6   15.99940000  #  oc   
7   15.99940000  #  oh   

Pair Coeffs  # lj/class2/coul/long

1         0.05400000      4.01000000 #  c1   
2         0.05400000      4.01000000 #  c2   
3         0.05400000      4.01000000 #  coh  
4         0.02000000      2.30000000 #  hc   
5         0.01300000      1.09800000 #  ho   
6         0.24000000      3.53500000 #  oc   
7         0.24000000      3.53500000 #  oh   

Bond Coeffs  # class2

1         1.53000000    299.67000000   -501.77000000    679.81000000 #  c1          c1   
2         1.53000000    299.67000000   -501.77000000    679.81000000 #  c1          c2   
3         1.53000000    299.67000000   -501.77000000    679.81000000 #  c1         coh   
4         1.10100000    345.00000000   -691.89000000    844.60000000 #  c1          hc   
5         1.42000000    400.39540000   -835.19510000   1313.01420000 #  c1          oc   
6         1.42000000    400.39540000   -835.19510000   1313.01420000 #  c1          oh   
7         1.10100000    345.00000000   -691.89000000    844.60000000 #  c2          hc   
8         1.42000000    400.39540000   -835.19510000   1313.01420000 #  c2          oh   
9         1.10100000    345.00000000   -691.89000000    844.60000000 #  coh         hc   
10        1.42000000    400.39540000   -835.19510000   1313.01420000 #  coh         oc   
11        0.96500000    532.50620000  -1282.90500000   2004.76580000 #  ho          oh   

Angle Coeffs  # class2

1       112.67000000     39.51600000     -7.44300000     -9.55830000 #  c1         c1         c1   
2       112.67000000     39.51600000     -7.44300000     -9.55830000 #  c1         c1         c2   
3       112.67000000     39.51600000     -7.44300000     -9.55830000 #  c1         c1        coh   
4       110.77000000     41.45300000    -10.60400000      5.12900000 #  c1         c1         hc   
5       111.27000000     54.53810000     -8.36420000    -13.08380000 #  c1         c1         oc   
6       111.27000000     54.53810000     -8.36420000    -13.08380000 #  c1         c1         oh   
7       110.77000000     41.45300000    -10.60400000      5.12900000 #  c1         c2         hc   
8       111.27000000     54.53810000     -8.36420000    -13.08380000 #  c1         c2         oh   
9       110.77000000     41.45300000    -10.60400000      5.12900000 #  c1        coh         hc   
10      111.27000000     54.53810000     -8.36420000    -13.08380000 #  c1        coh         oc   
11      104.50000000     35.74540000    -10.00670000     -6.27290000 #  c1         oc        coh   
12      105.80000000     52.70610000    -12.10900000     -9.86810000 #  c1         oh         ho   
13      110.77000000     41.45300000    -10.60400000      5.12900000 #  c2         c1         hc   
14      111.27000000     54.53810000     -8.36420000    -13.08380000 #  c2         c1         oc   
15      105.80000000     52.70610000    -12.10900000     -9.86810000 #  c2         oh         ho   
16      110.77000000     41.45300000    -10.60400000      5.12900000 #  coh        c1         hc   
17      111.27000000     54.53810000     -8.36420000    -13.08380000 #  coh        c1         oh   
18      108.72800000     58.54460000    -10.80880000    -12.40060000 #  hc         c1         oc   
19      108.72800000     58.54460000    -10.80880000    -12.40060000 #  hc         c1         oh   
20      107.66000000     39.64100000    -12.92100000     -2.43180000 #  hc         c2         hc   
21      108.72800000     58.54460000    -10.80880000    -12.40060000 #  hc         c2         oh   
22      108.72800000     58.54460000    -10.80880000    -12.40060000 #  hc        coh         oc   
23      109.50000000     70.00000000      0.00000000      0.00000000 #  oc        coh         oc   

Dihedral Coeffs  # class2

1         0.00000000      0.00000000      0.05140000      0.00000000     -0.14300000      0.00000000 #  c1         c1        c1         c1   
2         0.00000000      0.00000000      0.05140000      0.00000000     -0.14300000      0.00000000 #  c1         c1        c1         c2   
3         0.00000000      0.00000000      0.05140000      0.00000000     -0.14300000      0.00000000 #  c1         c1        c1        coh   
4        -0.14320000      0.00000000      0.06170000      0.00000000     -0.10830000      0.00000000 #  hc         c1        c1         hc   
5         0.00000000      0.00000000      0.03160000      0.00000000     -0.16810000      0.00000000 #  c1         c1        c1         hc   
6         0.00000000      0.00000000      0.03160000      0.00000000     -0.16810000      0.00000000 #  c2         c1        c1         hc   
7         0.00000000      0.00000000      0.03160000      0.00000000     -0.16810000      0.00000000 #  coh        c1        c1         hc   
8         0.71370000      0.00000000      0.26600000      0.00000000     -0.25450000      0.00000000 #  c1         c1        c1         oc   
9         0.71370000      0.00000000      0.26600000      0.00000000     -0.25450000      0.00000000 #  c2         c1        c1         oc   
10       -0.18200000      0.00000000     -0.10840000      0.00000000     -0.70470000      0.00000000 #  oc         c1        c1         oc   
11       -0.14350000      0.00000000      0.25300000      0.00000000     -0.09050000      0.00000000 #  hc         c1        c1         oc   
12        0.71370000      0.00000000      0.26600000      0.00000000     -0.25450000      0.00000000 #  coh        c1        c1         oh   
13       -0.18200000      0.00000000     -0.10840000      0.00000000     -0.70470000      0.00000000 #  oc         c1        c1         oh   
14        0.71370000      0.00000000      0.26600000      0.00000000     -0.25450000      0.00000000 #  c1         c1        c1         oh   
15       -0.14350000      0.00000000      0.25300000      0.00000000     -0.09050000      0.00000000 #  hc         c1        c1         oh   
16       -0.18200000      0.00000000     -0.10840000      0.00000000     -0.70470000      0.00000000 #  oh         c1        c1         oh   
17       -0.14320000      0.00000000      0.06170000      0.00000000     -0.10830000      0.00000000 #  hc         c1        c2         hc   
18        0.00000000      0.00000000      0.03160000      0.00000000     -0.16810000      0.00000000 #  c1         c1        c2         hc   
19       -0.18200000      0.00000000     -0.10840000      0.00000000     -0.70470000      0.00000000 #  oc         c1        c2         oh   
20        0.71370000      0.00000000      0.26600000      0.00000000     -0.25450000      0.00000000 #  c1         c1        c2         oh   
21       -0.14350000      0.00000000      0.25300000      0.00000000     -0.09050000      0.00000000 #  hc         c1        c2         oh   
22       -0.14320000      0.00000000      0.06170000      0.00000000     -0.10830000      0.00000000 #  hc         c1       coh         hc   
23        0.00000000      0.00000000      0.03160000      0.00000000     -0.16810000      0.00000000 #  c1         c1       coh         hc   
24        0.71370000      0.00000000      0.26600000      0.00000000     -0.25450000      0.00000000 #  c1         c1       coh         oc   
25       -0.14350000      0.00000000      0.25300000      0.00000000     -0.09050000      0.00000000 #  hc         c1       coh         oc   
26       -0.52030000      0.00000000     -0.30280000      0.00000000     -0.34500000      0.00000000 #  c2         c1        oc        coh   
27       -0.52030000      0.00000000     -0.30280000      0.00000000     -0.34500000      0.00000000 #  c1         c1        oc        coh   
28       -0.67320000      0.00000000     -0.47780000      0.00000000     -0.16700000      0.00000000 #  c1         c1        oh         ho   
29        0.18630000      0.00000000     -0.43380000      0.00000000     -0.21210000      0.00000000 #  hc         c1        oh         ho   
30       -0.67320000      0.00000000     -0.47780000      0.00000000     -0.16700000      0.00000000 #  coh        c1        oh         ho   
31       -0.14350000      0.00000000      0.25300000      0.00000000     -0.09050000      0.00000000 #  hc         c2        c1         oc   
32       -0.67320000      0.00000000     -0.47780000      0.00000000     -0.16700000      0.00000000 #  c1         c2        oh         ho   
33        0.18630000      0.00000000     -0.43380000      0.00000000     -0.21210000      0.00000000 #  hc         c2        oh         ho   
34       -0.18200000      0.00000000     -0.10840000      0.00000000     -0.70470000      0.00000000 #  oc        coh        c1         oh   
35       -0.14350000      0.00000000      0.25300000      0.00000000     -0.09050000      0.00000000 #  hc        coh        c1         oh   
36       -0.52030000      0.00000000     -0.30280000      0.00000000     -0.34500000      0.00000000 #  c1        coh        oc         c1   
37        0.53020000      0.00000000      0.00000000      0.00000000     -0.39660000      0.00000000 #  hc         c1        oc        coh   
38        0.53020000      0.00000000      0.00000000      0.00000000     -0.39660000      0.00000000 #  hc        coh        oc         c1   
39        0.00000000      0.00000000      0.00000000      0.00000000      0.13000000      0.00000000 #  oc        coh        oc         c1   

Improper Coeffs  # class2

1         0.00000000      0.00000000 #  c1         c1        c1        hc      nb!=3   
2         0.00000000      0.00000000 #  c1         c1        c1        oc      nb!=3   
3         0.00000000      0.00000000 #  c1         c1        c1        oh      nb!=3   
4         0.00000000      0.00000000 #  c1         c1        c2        hc      nb!=3   
5         0.00000000      0.00000000 #  c1         c1        c2        oc      nb!=3   
6         0.00000000      0.00000000 #  c1         c1       coh        hc      nb!=3   
7         0.00000000      0.00000000 #  c1         c1       coh        oh      nb!=3   
8         0.00000000      0.00000000 #  c1         c1        hc        oc      nb!=3   
9         0.00000000      0.00000000 #  c1         c1        hc        oh      nb!=3   
10        0.00000000      0.00000000 #  c1         c2        hc        hc      nb!=3   
11        0.00000000      0.00000000 #  c1         c2        hc        oh      nb!=3   
12        0.00000000      0.00000000 #  c1        coh        hc        oc      nb!=3   
13        0.00000000      0.00000000 #  c1        coh        oc        oc      nb!=3   
14        0.00000000      0.00000000 #  c2         c1        hc        oc      nb!=3   
15        0.00000000      0.00000000 #  coh        c1        hc        oh      nb!=3   
16        0.00000000      0.00000000 #  hc         c2        hc        oh      nb!=3   
17        0.00000000      0.00000000 #  hc        coh        oc        oc      nb!=3   

BondBond Coeffs  # class2

1         0.00000000      1.53000000      1.53000000 #  c1         c1         c1   
2         0.00000000      1.53000000      1.53000000 #  c1         c1         c2   
3         0.00000000      1.53000000      1.53000000 #  c1         c1        coh   
4         3.38720000      1.53000000      1.10100000 #  c1         c1         hc   
5        11.43180000      1.53000000      1.42000000 #  c1         c1         oc   
6        11.43180000      1.53000000      1.42000000 #  c1         c1         oh   
7         3.38720000      1.53000000      1.10100000 #  c1         c2         hc   
8        11.43180000      1.53000000      1.42000000 #  c1         c2         oh   
9         3.38720000      1.53000000      1.10100000 #  c1        coh         hc   
10       11.43180000      1.53000000      1.42000000 #  c1        coh         oc   
11       -7.11310000      1.42000000      1.42000000 #  c1         oc        coh   
12       -9.68790000      1.42000000      0.96500000 #  c1         oh         ho   
13        3.38720000      1.53000000      1.10100000 #  c2         c1         hc   
14       11.43180000      1.53000000      1.42000000 #  c2         c1         oc   
15       -9.68790000      1.42000000      0.96500000 #  c2         oh         ho   
16        3.38720000      1.53000000      1.10100000 #  coh        c1         hc   
17       11.43180000      1.53000000      1.42000000 #  coh        c1         oh   
18       23.19790000      1.10100000      1.42000000 #  hc         c1         oc   
19       23.19790000      1.10100000      1.42000000 #  hc         c1         oh   
20        5.33160000      1.10100000      1.10100000 #  hc         c2         hc   
21       23.19790000      1.10100000      1.42000000 #  hc         c2         oh   
22       23.19790000      1.10100000      1.42000000 #  hc        coh         oc   
23        0.00000000      1.42000000      1.42000000 #  oc        coh         oc   

BondAngle Coeffs  # class2

1         8.01600000      8.01600000      1.53000000      1.53000000 #  c1         c1         c1   
2         8.01600000      8.01600000      1.53000000      1.53000000 #  c1         c1         c2   
3         8.01600000      8.01600000      1.53000000      1.53000000 #  c1         c1        coh   
4        20.75400000     11.42100000      1.53000000      1.10100000 #  c1         c1         hc   
5         2.68680000     20.40330000      1.53000000      1.42000000 #  c1         c1         oc   
6         2.68680000     20.40330000      1.53000000      1.42000000 #  c1         c1         oh   
7        20.75400000     11.42100000      1.53000000      1.10100000 #  c1         c2         hc   
8         2.68680000     20.40330000      1.53000000      1.42000000 #  c1         c2         oh   
9        20.75400000     11.42100000      1.53000000      1.10100000 #  c1        coh         hc   
10        2.68680000     20.40330000      1.53000000      1.42000000 #  c1        coh         oc   
11       -2.81120000     -2.81120000      1.42000000      1.42000000 #  c1         oc        coh   
12       28.58000000     18.92770000      1.42000000      0.96500000 #  c1         oh         ho   
13       20.75400000     11.42100000      1.53000000      1.10100000 #  c2         c1         hc   
14        2.68680000     20.40330000      1.53000000      1.42000000 #  c2         c1         oc   
15       28.58000000     18.92770000      1.42000000      0.96500000 #  c2         oh         ho   
16       20.75400000     11.42100000      1.53000000      1.10100000 #  coh        c1         hc   
17        2.68680000     20.40330000      1.53000000      1.42000000 #  coh        c1         oh   
18        4.61890000     55.32700000      1.10100000      1.42000000 #  hc         c1         oc   
19        4.61890000     55.32700000      1.10100000      1.42000000 #  hc         c1         oh   
20       18.10300000     18.10300000      1.10100000      1.10100000 #  hc         c2         hc   
21        4.61890000     55.32700000      1.10100000      1.42000000 #  hc         c2         oh   
22        4.61890000     55.32700000      1.10100000      1.42000000 #  hc        coh         oc   
23        0.00000000      0.00000000      1.42000000      1.42000000 #  oc        coh         oc   

AngleAngleTorsion Coeffs  # class2

1       -22.04500000    112.67000000    112.67000000 #  c1         c1        c1         c1   
2       -22.04500000    112.67000000    112.67000000 #  c1         c1        c1         c2   
3       -22.04500000    112.67000000    112.67000000 #  c1         c1        c1        coh   
4       -12.56400000    110.77000000    110.77000000 #  hc         c1        c1         hc   
5       -16.16400000    112.67000000    110.77000000 #  c1         c1        c1         hc   
6       -16.16400000    112.67000000    110.77000000 #  c2         c1        c1         hc   
7       -16.16400000    112.67000000    110.77000000 #  coh        c1        c1         hc   
8       -29.04200000    112.67000000    111.27000000 #  c1         c1        c1         oc   
9       -29.04200000    112.67000000    111.27000000 #  c2         c1        c1         oc   
10      -14.04840000    111.27000000    111.27000000 #  oc         c1        c1         oc   
11      -20.20060000    110.77000000    111.27000000 #  hc         c1        c1         oc   
12      -29.04200000    112.67000000    111.27000000 #  coh        c1        c1         oh   
13      -14.04840000    111.27000000    111.27000000 #  oc         c1        c1         oh   
14      -29.04200000    112.67000000    111.27000000 #  c1         c1        c1         oh   
15      -20.20060000    110.77000000    111.27000000 #  hc         c1        c1         oh   
16      -14.04840000    111.27000000    111.27000000 #  oh         c1        c1         oh   
17      -12.56400000    110.77000000    110.77000000 #  hc         c1        c2         hc   
18      -16.16400000    112.67000000    110.77000000 #  c1         c1        c2         hc   
19      -14.04840000    111.27000000    111.27000000 #  oc         c1        c2         oh   
20      -29.04200000    112.67000000    111.27000000 #  c1         c1        c2         oh   
21      -20.20060000    110.77000000    111.27000000 #  hc         c1        c2         oh   
22      -12.56400000    110.77000000    110.77000000 #  hc         c1       coh         hc   
23      -16.16400000    112.67000000    110.77000000 #  c1         c1       coh         hc   
24      -29.04200000    112.67000000    111.27000000 #  c1         c1       coh         oc   
25      -20.20060000    110.77000000    111.27000000 #  hc         c1       coh         oc   
26      -19.00590000    111.27000000    104.50000000 #  c2         c1        oc        coh   
27      -19.00590000    111.27000000    104.50000000 #  c1         c1        oc        coh   
28      -12.10380000    111.27000000    105.80000000 #  c1         c1        oh         ho   
29      -10.50930000    108.72800000    105.80000000 #  hc         c1        oh         ho   
30      -12.10380000    111.27000000    105.80000000 #  coh        c1        oh         ho   
31      -20.20060000    110.77000000    111.27000000 #  hc         c2        c1         oc   
32      -12.10380000    111.27000000    105.80000000 #  c1         c2        oh         ho   
33      -10.50930000    108.72800000    105.80000000 #  hc         c2        oh         ho   
34      -14.04840000    111.27000000    111.27000000 #  oc        coh        c1         oh   
35      -20.20060000    110.77000000    111.27000000 #  hc        coh        c1         oh   
36      -19.00590000    111.27000000    104.50000000 #  c1        coh        oc         c1   
37      -16.44380000    108.72800000    104.50000000 #  hc         c1        oc        coh   
38      -16.44380000    108.72800000    104.50000000 #  hc        coh        oc         c1   
39        0.00000000    109.50000000    104.50000000 #  oc        coh        oc         c1   

EndBondTorsion Coeffs  # class2

1        -0.07320000      0.00000000      0.00000000     -0.07320000      0.00000000      0.00000000      1.53000000      1.53000000 #  c1         c1        c1         c1   
2        -0.07320000      0.00000000      0.00000000     -0.07320000      0.00000000      0.00000000      1.53000000      1.53000000 #  c1         c1        c1         c2   
3        -0.07320000      0.00000000      0.00000000     -0.07320000      0.00000000      0.00000000      1.53000000      1.53000000 #  c1         c1        c1        coh   
4         0.21300000      0.31200000      0.07770000      0.21300000      0.31200000      0.07770000      1.10100000      1.10100000 #  hc         c1        c1         hc   
5         0.24860000      0.24220000     -0.09250000      0.08140000      0.05910000      0.22190000      1.53000000      1.10100000 #  c1         c1        c1         hc   
6         0.24860000      0.24220000     -0.09250000      0.08140000      0.05910000      0.22190000      1.53000000      1.10100000 #  c2         c1        c1         hc   
7         0.24860000      0.24220000     -0.09250000      0.08140000      0.05910000      0.22190000      1.53000000      1.10100000 #  coh        c1        c1         hc   
8        -0.31900000      0.44110000     -0.71740000      1.15380000      0.84090000     -0.91380000      1.53000000      1.42000000 #  c1         c1        c1         oc   
9        -0.31900000      0.44110000     -0.71740000      1.15380000      0.84090000     -0.91380000      1.53000000      1.42000000 #  c2         c1        c1         oc   
10        1.01650000      0.75530000     -0.46090000      1.01650000      0.75530000     -0.46090000      1.42000000      1.42000000 #  oc         c1        c1         oc   
11        0.96810000      0.95510000      0.04360000      0.59030000      0.66690000      0.85840000      1.10100000      1.42000000 #  hc         c1        c1         oc   
12       -0.31900000      0.44110000     -0.71740000      1.15380000      0.84090000     -0.91380000      1.53000000      1.42000000 #  coh        c1        c1         oh   
13        1.01650000      0.75530000     -0.46090000      1.01650000      0.75530000     -0.46090000      1.42000000      1.42000000 #  oc         c1        c1         oh   
14       -0.31900000      0.44110000     -0.71740000      1.15380000      0.84090000     -0.91380000      1.53000000      1.42000000 #  c1         c1        c1         oh   
15        0.96810000      0.95510000      0.04360000      0.59030000      0.66690000      0.85840000      1.10100000      1.42000000 #  hc         c1        c1         oh   
16        1.01650000      0.75530000     -0.46090000      1.01650000      0.75530000     -0.46090000      1.42000000      1.42000000 #  oh         c1        c1         oh   
17        0.21300000      0.31200000      0.07770000      0.21300000      0.31200000      0.07770000      1.10100000      1.10100000 #  hc         c1        c2         hc   
18        0.24860000      0.24220000     -0.09250000      0.08140000      0.05910000      0.22190000      1.53000000      1.10100000 #  c1         c1        c2         hc   
19        1.01650000      0.75530000     -0.46090000      1.01650000      0.75530000     -0.46090000      1.42000000      1.42000000 #  oc         c1        c2         oh   
20       -0.31900000      0.44110000     -0.71740000      1.15380000      0.84090000     -0.91380000      1.53000000      1.42000000 #  c1         c1        c2         oh   
21        0.96810000      0.95510000      0.04360000      0.59030000      0.66690000      0.85840000      1.10100000      1.42000000 #  hc         c1        c2         oh   
22        0.21300000      0.31200000      0.07770000      0.21300000      0.31200000      0.07770000      1.10100000      1.10100000 #  hc         c1       coh         hc   
23        0.24860000      0.24220000     -0.09250000      0.08140000      0.05910000      0.22190000      1.53000000      1.10100000 #  c1         c1       coh         hc   
24       -0.31900000      0.44110000     -0.71740000      1.15380000      0.84090000     -0.91380000      1.53000000      1.42000000 #  c1         c1       coh         oc   
25        0.96810000      0.95510000      0.04360000      0.59030000      0.66690000      0.85840000      1.10100000      1.42000000 #  hc         c1       coh         oc   
26       -0.24560000      1.05170000     -0.77950000      0.47410000      1.26350000      0.55760000      1.53000000      1.42000000 #  c2         c1        oc        coh   
27       -0.24560000      1.05170000     -0.77950000      0.47410000      1.26350000      0.55760000      1.53000000      1.42000000 #  c1         c1        oc        coh   
28       -0.58000000      0.90040000      0.00000000      0.00000000      0.53430000      0.90250000      1.53000000      0.96500000 #  c1         c1        oh         ho   
29       -1.75540000      1.31450000      0.22630000      0.24930000      0.68030000      0.00000000      1.10100000      0.96500000 #  hc         c1        oh         ho   
30       -0.58000000      0.90040000      0.00000000      0.00000000      0.53430000      0.90250000      1.53000000      0.96500000 #  coh        c1        oh         ho   
31        0.96810000      0.95510000      0.04360000      0.59030000      0.66690000      0.85840000      1.10100000      1.42000000 #  hc         c2        c1         oc   
32       -0.58000000      0.90040000      0.00000000      0.00000000      0.53430000      0.90250000      1.53000000      0.96500000 #  c1         c2        oh         ho   
33       -1.75540000      1.31450000      0.22630000      0.24930000      0.68030000      0.00000000      1.10100000      0.96500000 #  hc         c2        oh         ho   
34        1.01650000      0.75530000     -0.46090000      1.01650000      0.75530000     -0.46090000      1.42000000      1.42000000 #  oc        coh        c1         oh   
35        0.96810000      0.95510000      0.04360000      0.59030000      0.66690000      0.85840000      1.10100000      1.42000000 #  hc        coh        c1         oh   
36       -0.24560000      1.05170000     -0.77950000      0.47410000      1.26350000      0.55760000      1.53000000      1.42000000 #  c1        coh        oc         c1   
37       -0.60540000      1.33390000      0.96480000     -0.16200000      0.15640000     -1.14080000      1.10100000      1.42000000 #  hc         c1        oc        coh   
38       -0.60540000      1.33390000      0.96480000     -0.16200000      0.15640000     -1.14080000      1.10100000      1.42000000 #  hc        coh        oc         c1   
39        0.00000000      0.00000000      0.00000000      0.00000000      0.00000000      0.00000000      1.42000000      1.42000000 #  oc        coh        oc         c1   

MiddleBondTorsion Coeffs  # class2

1       -17.78700000     -7.18770000      0.00000000      1.53000000 #  c1         c1        c1         c1   
2       -17.78700000     -7.18770000      0.00000000      1.53000000 #  c1         c1        c1         c2   
3       -17.78700000     -7.18770000      0.00000000      1.53000000 #  c1         c1        c1        coh   
4       -14.26100000     -0.53220000     -0.48640000      1.53000000 #  hc         c1        c1         hc   
5       -14.87900000     -3.65810000     -0.31380000      1.53000000 #  c1         c1        c1         hc   
6       -14.87900000     -3.65810000     -0.31380000      1.53000000 #  c2         c1        c1         hc   
7       -14.87900000     -3.65810000     -0.31380000      1.53000000 #  coh        c1        c1         hc   
8       -21.88420000     -7.67640000     -0.68680000      1.53000000 #  c1         c1        c1         oc   
9       -21.88420000     -7.67640000     -0.68680000      1.53000000 #  c2         c1        c1         oc   
10      -17.25850000     -3.61570000     -0.83640000      1.53000000 #  oc         c1        c1         oc   
11      -16.79750000     -1.22960000     -0.27500000      1.53000000 #  hc         c1        c1         oc   
12      -21.88420000     -7.67640000     -0.68680000      1.53000000 #  coh        c1        c1         oh   
13      -17.25850000     -3.61570000     -0.83640000      1.53000000 #  oc         c1        c1         oh   
14      -21.88420000     -7.67640000     -0.68680000      1.53000000 #  c1         c1        c1         oh   
15      -16.79750000     -1.22960000     -0.27500000      1.53000000 #  hc         c1        c1         oh   