LAMMPS data file. msi2lmp v3.9.6 / 11 Sep 2014 / CGCMM for PAN_crystal_relaxed > all2lmp: v1.19 / 5 June 2024  Class: 2

3024 atoms
3024 bonds
5616 angles
9072 dihedrals
3456 impropers

5 atom types
5 bond types
8 angle types
8 dihedral types
5 improper types

 0.305555667 31.535555667 xlo xhi
 0.380071742 31.079845430 ylo yhi
 0.245995971 34.434650338 zlo zhi
 0.117879248 0.000000000 0.775912528 xy xz yz

Atom Type Labels

 1  c1
 2  c2
 3  ct
 4  hpan
 5  nt

Bond Type Labels

 1  c1-c2
 2  c1-ct
 3  c1-hpan
 4  c2-hpan
 5  ct-nt

Angle Type Labels

 1  c1-c2-c1
 2  c1-c2-hpan
 3  c1-ct-nt
 4  c2-c1-c2
 5  c2-c1-ct
 6  c2-c1-hpan
 7  ct-c1-hpan
 8  hpan-c2-hpan

Dihedral Type Labels

 1  hpan-c2-c1-ct
 2  c2-c1-c2-hpan
 3  hpan-c1-c2-hpan
 4  hpan-c1-ct-nt
 5  c2-c1-ct-nt
 6  c1-c2-c1-c2
 7  c1-c2-c1-ct
 8  c1-c2-c1-hpan

Improper Type Labels

 1  c1-c2-c1-hpan-nb!=3
 2  c1-c2-hpan-hpan-nb!=3
 3  c2-c1-c2-ct-nb!=3
 4  c2-c1-c2-hpan-nb!=3
 5  c2-c1-ct-hpan-nb!=3

Masses

1   12.01115000  #  c1   
2   12.01115000  #  c2   
3   12.01115000  #  ct   
4    1.00797000  #  hpan 
5   14.00670000  #  nt   

Pair Coeffs  # lj/class2/coul/long

1         0.05400000      4.01000000 #  c1   
2         0.05400000      4.01000000 #  c2   
3         0.06400000      4.01000000 #  ct   
4         0.02000000      2.30000000 #  hpan 
5         0.06500000      3.57000000 #  nt   

Bond Coeffs  # class2

1         1.53000000    299.67000000   -501.77000000    679.81000000 #  c1          c2   
2         1.42000000    311.14920000      0.00000000      0.00000000 #  c1          ct   
3         1.10100000    345.00000000   -691.89000000    844.60000000 #  c1        hpan   
4         1.10100000    345.00000000   -691.89000000    844.60000000 #  c2        hpan   
5         1.15800000    880.00000000      0.00000000      0.00000000 #  ct          nt   

Angle Coeffs  # class2

1       112.67000000     39.51600000     -7.44300000     -9.55830000 #  c1         c2         c1   
2       110.77000000     41.45300000    -10.60400000      5.12900000 #  c1         c2       hpan   
3       180.00000000    200.00000000      0.00000000      0.00000000 #  c1         ct         nt   
4       112.67000000     39.51600000     -7.44300000     -9.55830000 #  c2         c1         c2   
5       109.50000000     46.00000000      0.00000000      0.00000000 #  c2         c1         ct   
6       110.77000000     41.45300000    -10.60400000      5.12900000 #  c2         c1       hpan   
7       109.50000000     42.00000000      0.00000000      0.00000000 #  ct         c1       hpan   
8       107.66000000     39.64100000    -12.92100000     -2.43180000 #  hpan       c2       hpan   

Dihedral Coeffs  # class2

1         0.00000000      0.00000000      0.03160000      0.00000000     -0.16810000      0.00000000 #  hpan       c2        c1         ct   
2         0.00000000      0.00000000      0.03160000      0.00000000     -0.16810000      0.00000000 #  c2         c1        c2       hpan   
3        -0.14320000      0.00000000      0.06170000      0.00000000     -0.10830000      0.00000000 #  hpan       c1        c2       hpan   
4         0.00000000      0.00000000      0.00000000      0.00000000      0.00000000      0.00000000 #  hpan       c1        ct         nt   
5         0.00000000      0.00000000      0.00000000      0.00000000      0.00000000      0.00000000 #  c2         c1        ct         nt   
6         0.00000000      0.00000000      0.05140000      0.00000000     -0.14300000      0.00000000 #  c1         c2        c1         c2   
7         0.00000000      0.00000000      0.05140000      0.00000000     -0.14300000      0.00000000 #  c1         c2        c1         ct   
8         0.00000000      0.00000000      0.03160000      0.00000000     -0.16810000      0.00000000 #  c1         c2        c1       hpan   

Improper Coeffs  # class2

1         0.00000000      0.00000000 #  c1         c2        c1       hpan     nb!=3   
2         0.00000000      0.00000000 #  c1         c2       hpan      hpan     nb!=3   
3         0.00000000      0.00000000 #  c2         c1        c2        ct      nb!=3   
4         0.00000000      0.00000000 #  c2         c1        c2       hpan     nb!=3   
5         0.00000000      0.00000000 #  c2         c1        ct       hpan     nb!=3   

BondBond Coeffs  # class2

1         0.00000000      1.53000000      1.53000000 #  c1         c2         c1   
2         3.38720000      1.53000000      1.10100000 #  c1         c2       hpan   
3         0.00000000      1.42000000      1.15800000 #  c1         ct         nt   
4         0.00000000      1.53000000      1.53000000 #  c2         c1         c2   
5         0.00000000      1.53000000      1.42000000 #  c2         c1         ct   
6         3.38720000      1.53000000      1.10100000 #  c2         c1       hpan   
7         0.00000000      1.42000000      1.10100000 #  ct         c1       hpan   
8         5.33160000      1.10100000      1.10100000 #  hpan       c2       hpan   

BondAngle Coeffs  # class2

1         8.01600000      8.01600000      1.53000000      1.53000000 #  c1         c2         c1   
2        20.75400000     11.42100000      1.53000000      1.10100000 #  c1         c2       hpan   
3         0.00000000      0.00000000      1.42000000      1.15800000 #  c1         ct         nt   
4         8.01600000      8.01600000      1.53000000      1.53000000 #  c2         c1         c2   
5         0.00000000      0.00000000      1.53000000      1.42000000 #  c2         c1         ct   
6        20.75400000     11.42100000      1.53000000      1.10100000 #  c2         c1       hpan   
7         0.00000000      0.00000000      1.42000000      1.10100000 #  ct         c1       hpan   
8        18.10300000     18.10300000      1.10100000      1.10100000 #  hpan       c2       hpan   

AngleAngleTorsion Coeffs  # class2

1         0.00000000    110.77000000    109.50000000 #  hpan       c2        c1         ct   
2       -16.16400000    112.67000000    110.77000000 #  c2         c1        c2       hpan   
3       -12.56400000    110.77000000    110.77000000 #  hpan       c1        c2       hpan   
4         0.00000000    109.50000000    180.00000000 #  hpan       c1        ct         nt   
5         0.00000000    109.50000000    180.00000000 #  c2         c1        ct         nt   
6       -22.04500000    112.67000000    112.67000000 #  c1         c2        c1         c2   
7         0.00000000    112.67000000    109.50000000 #  c1         c2        c1         ct   
8       -16.16400000    112.67000000    110.77000000 #  c1         c2        c1       hpan   

EndBondTorsion Coeffs  # class2

1         0.00000000      0.00000000      0.00000000      0.00000000      0.00000000      0.00000000      1.10100000      1.42000000 #  hpan       c2        c1         ct   
2         0.24860000      0.24220000     -0.09250000      0.08140000      0.05910000      0.22190000      1.53000000      1.10100000 #  c2         c1        c2       hpan   
3         0.21300000      0.31200000      0.07770000      0.21300000      0.31200000      0.07770000      1.10100000      1.10100000 #  hpan       c1        c2       hpan   
4         0.00000000      0.00000000      0.00000000      0.00000000      0.00000000      0.00000000      1.10100000      1.15800000 #  hpan       c1        ct         nt   
5         0.00000000      0.00000000      0.00000000      0.00000000      0.00000000      0.00000000      1.53000000      1.15800000 #  c2         c1        ct         nt   
6        -0.07320000      0.00000000      0.00000000     -0.07320000      0.00000000      0.00000000      1.53000000      1.53000000 #  c1         c2        c1         c2   
7         0.00000000      0.00000000      0.00000000      0.00000000      0.00000000      0.00000000      1.53000000      1.42000000 #  c1         c2        c1         ct   
8         0.24860000      0.24220000     -0.09250000      0.08140000      0.05910000      0.22190000      1.53000000      1.10100000 #  c1         c2        c1       hpan   

MiddleBondTorsion Coeffs  # class2

1         0.00000000      0.00000000      0.00000000      1.53000000 #  hpan       c2        c1         ct   
2       -14.87900000     -3.65810000     -0.31380000      1.53000000 #  c2         c1        c2       hpan   
3       -14.26100000     -0.53220000     -0.48640000      1.53000000 #  hpan       c1        c2       hpan   
4         0.00000000      0.00000000      0.00000000      1.42000000 #  hpan       c1        ct         nt   
5         0.00000000      0.00000000      0.00000000      1.42000000 #  c2         c1        ct         nt   
6       -17.78700000     -7.18770000      0.00000000      1.53000000 #  c1         c2        c1         c2   
7         0.00000000      0.00000000      0.00000000      1.53000000 #  c1         c2        c1         ct   
8       -14.87900000     -3.65810000     -0.31380000      1.53000000 #  c1         c2        c1       hpan   

BondBond13 Coeffs  # class2

1         0.00000000      1.10100000      1.42000000 #  hpan       c2        c1         ct   
2         0.00000000      1.53000000      1.10100000 #  c2         c1        c2       hpan   
3         0.00000000      1.10100000      1.10100000 #  hpan       c1        c2       hpan   
4         0.00000000      1.10100000      1.15800000 #  hpan       c1        ct         nt   
5         0.00000000      1.53000000      1.15800000 #  c2         c1        ct         nt   
6         0.00000000      1.53000000      1.53000000 #  c1         c2        c1         c2   
7         0.00000000      1.53000000      1.42000000 #  c1         c2        c1         ct   
8         0.00000000      1.53000000      1.10100000 #  c1         c2        c1       hpan   

AngleTorsion Coeffs  # class2

1         0.00000000      0.00000000      0.00000000      0.00000000      0.00000000      0.00000000    110.77000000    109.50000000 #  hpan       c2        c1         ct   
2        -0.24540000      0.00000000     -0.11360000      0.31130000      0.45160000     -0.19880000    112.67000000    110.77000000 #  c2         c1        c2       hpan   
3        -0.80850000      0.55690000     -0.24660000     -0.80850000      0.55690000     -0.24660000    110.77000000    110.77000000 #  hpan       c1        c2       hpan   
4         0.00000000      0.00000000      0.00000000      0.00000000      0.00000000      0.00000000    109.50000000    180.00000000 #  hpan       c1        ct         nt   
5         0.00000000      0.00000000      0.00000000      0.00000000      0.00000000      0.00000000    109.50000000    180.00000000 #  c2         c1        ct         nt   
6         0.38860000     -0.31390000      0.13890000      0.38860000     -0.31390000      0.13890000    112.67000000    112.67000000 #  c1         c2        c1         c2   
7         0.00000000      0.00000000      0.00000000      0.00000000      0.00000000      0.00000000    112.67000000    109.50000000 #  c1         c2        c1         ct   
8        -0.24540000      0.00000000     -0.11360000      0.31130000      0.45160000     -0.19880000    112.67000000    110.77000000 #  c1         c2        c1       hpan   

AngleAngle Coeffs  # class2

1        -1.31990000     -1.31990000      0.11840000    112.67000000    110.77000000    110.77000000 #  c1         c2        c1       hpan     nb!=3   
2         0.27380000     -0.48250000      0.27380000    110.77000000    110.77000000    107.66000000 #  c1         c2       hpan      hpan     nb!=3   
3         0.00000000      0.00000000      0.00000000    112.67000000    109.50000000    109.50000000 #  c2         c1        c2        ct      nb!=3   
4        -1.31990000     -1.31990000      0.11840000    112.67000000    110.77000000    110.77000000 #  c2         c1        c2       hpan     nb!=3   
5         0.00000000      0.00000000      0.00000000    109.50000000    109.50000000    110.77000000 #  c2         c1        ct       hpan     nb!=3   

Atoms # full

  1     1   2   -0.106000    0.631167160     2.652675444     3.939406848      0    0    0 #  c2/C
  2     1   4    0.053000    0.643000024     1.854673327     4.813191868      0    0    0 #  hpan/H
  3     1   4    0.053000    0.654784038     3.539269695     4.739167210      0    0    0 #  hpan/H
  4     1   2   -0.106000   16.246167160     2.652675444     3.939406848      0    0    0 #  c2/C
  5     1   4    0.053000   16.258000024     1.854673327     4.813191868      0    0    0 #  hpan/H
  6     1   4    0.053000   16.269784038     3.539269695     4.739167210      0    0    0 #  hpan/H
  7     2   2   -0.106000    0.690106784    18.002562288     3.939406848      0    0    0 #  c2/C
  8     2   4    0.053000    0.701939648    17.204560170     4.813191868      0    0    0 #  hpan/H
  9     2   4    0.053000    0.713723662    18.889156539     4.739167210      0    0    0 #  hpan/H
  10    2   2   -0.106000   16.305106784    18.002562288     3.939406848      0    0    0 #  c2/C
  11    2   4    0.053000   16.316939648    17.204560170     4.813191868      0    0    0 #  hpan/H
  12    2   4    0.053000   16.328723662    18.889156539     4.739167210      0    0    0 #  hpan/H
  13    3   2   -0.106000    0.650813702     7.769304392     3.939406848      0    0    0 #  c2/C
  14    3   4    0.053000    0.662646565     6.971302275     4.813191868      0    0    0 #  hpan/H
  15    3   4    0.053000    0.674430579     8.655898643     4.739167210      0    0    0 #  hpan/H
  16    3   2   -0.106000   16.265813702     7.769304392     3.939406848      0    0    0 #  c2/C
  17    3   4    0.053000   16.277646565     6.971302275     4.813191868      0    0    0 #  hpan/H
  18    3   4    0.053000   16.289430579     8.655898643     4.739167210      0    0    0 #  hpan/H
  19    4   2   -0.106000    0.709753326    23.119191236     3.939406848      0    0    0 #  c2/C
  20    4   4    0.053000    0.721586189    22.321189118     4.813191868      0    0    0 #  hpan/H
  21    4   4    0.053000    0.733370203    24.005785487     4.739167210      0    0    0 #  hpan/H
  22    4   2   -0.106000   16.324753326    23.119191236     3.939406848      0    0    0 #  c2/C
  23    4   4    0.053000   16.336586189    22.321189118     4.813191868      0    0    0 #  hpan/H
  24    4   4    0.053000   16.348370203    24.005785487     4.739167210      0    0    0 #  hpan/H
  25    5   2   -0.106000    0.670460243    12.885933340     3.939406848      0    0    0 #  c2/C
  26    5   4    0.053000    0.682293107    12.087931222     4.813191868      0    0    0 #  hpan/H
  27    5   4    0.053000    0.694077120    13.772527591     4.739167210      0    0    0 #  hpan/H
  28    5   2   -0.106000   16.285460243    12.885933340     3.939406848      0    0    0 #  c2/C
  29    5   4    0.053000   16.297293107    12.087931222     4.813191868      0    0    0 #  hpan/H
  30    5   4    0.053000   16.309077120    13.772527591     4.739167210      0    0    0 #  hpan/H
  31    6   2   -0.106000    0.729399867    28.235820184     3.939406848      0    0    0 #  c2/C
  32    6   4    0.053000    0.741232731    27.437818066     4.813191868      0    0    0 #  hpan/H
  33    6   4    0.053000    0.753016744    29.122414435     4.739167210      0    0    0 #  hpan/H
  34    6   2   -0.106000   16.344399867    28.235820184     3.939406848      0    0    0 #  c2/C
  35    6   4    0.053000   16.356232731    27.437818066     4.813191868      0    0    0 #  hpan/H
  36    6   4    0.053000   16.368016744    29.122414435     4.739167210      0    0    0 #  hpan/H
  37    7   2   -0.106000    0.631167160     2.781994199     9.637939699      0    0    0 #  c2/C
  38    7   4    0.053000    0.643000024     1.983992081    10.511724720      0    0    0 #  hpan/H
  39    7   4    0.053000    0.654784038     3.668588450    10.437700061      0    0    0 #  hpan/H
  40    7   2   -0.106000   16.246167160     2.781994199     9.637939699      0    0    0 #  c2/C
  41    7   4    0.053000   16.258000024     1.983992081    10.511724720      0    0    0 #  hpan/H
  42    7   4    0.053000   16.269784038     3.668588450    10.437700061      0    0    0 #  hpan/H
  43    8   2   -0.106000    0.690106784    18.131881043     9.637939699      0    0    0 #  c2/C
  44    8   4    0.053000    0.701939648    17.333878925    10.511724720      0    0    0 #  hpan/H
  45    8   4    0.053000    0.713723662    19.018475294    10.437700061      0    0    0 #  hpan/H
  46    8   2   -0.106000   16.305106784    18.131881043     9.637939699      0    0    0 #  c2/C
  47    8   4    0.053000   16.316939648    17.333878925    10.511724720      0    0    0 #  hpan/H
  48    8   4    0.053000   16.328723662    19.018475294    10.437700061      0    0    0 #  hpan/H
  49    9   2   -0.106000    0.650813702     7.898623147     9.637939699      0    0    0 #  c2/C
  50    9   4    0.053000    0.662646565     7.100621029    10.511724720      0    0    0 #  hpan/H
  51    9   4    0.053000    0.674430579     8.785217398    10.437700061      0    0    0 #  hpan/H
  52    9   2   -0.106000   16.265813702     7.898623147     9.637939699      0    0    0 #  c2/C
  53    9   4    0.053000   16.277646565     7.100621029    10.511724720      0    0    0 #  hpan/H
  54    9   4    0.053000   16.289430579     8.785217398    10.437700061      0    0    0 #  hpan/H
  55    10  2   -0.106000    0.709753326    23.248509991     9.637939699      0    0    0 #  c2/C
  56    10  4    0.053000    0.721586189    22.450507873    10.511724720      0    0    0 #  hpan/H
  57    10  4    0.053000    0.733370203    24.135104241    10.437700061      0    0    0 #  hpan/H
  58    10  2   -0.106000   16.324753326    23.248509991     9.637939699      0    0    0 #  c2/C
  59    10  4    0.053000   16.336586189    22.450507873    10.511724720      0    0    0 #  hpan/H
  60    10  4    0.053000   16.348370203    24.135104241    10.437700061      0    0    0 #  hpan/H
  61    11  2   -0.106000    0.670460243    13.015252095     9.637939699      0    0    0 #  c2/C
  62    11  4    0.053000    0.682293107    12.217249977    10.511724720      0    0    0 #  hpan/H
  63    11  4    0.053000    0.694077120    13.901846346    10.437700061      0    0    0 #  hpan/H
  64    11  2   -0.106000   16.285460243    13.015252095     9.637939699      0    0    0 #  c2/C
  65    11  4    0.053000   16.297293107    12.217249977    10.511724720      0    0    0 #  hpan/H
  66    11  4    0.053000   16.309077120    13.901846346    10.437700061      0    0    0 #  hpan/H
  67    12  2   -0.106000    0.729399867    28.365138939     9.637939699      0    0    0 #  c2/C
  68    12  4    0.053000    0.741232731    27.567136821    10.511724720      0    0    0 #  hpan/H
  69    12  4    0.053000    0.753016744    29.251733189    10.437700061      0    0    0 #  hpan/H
  70    12  2   -0.106000   16.344399867    28.365138939     9.637939699      0    0    0 #  c2/C
  71    12  4    0.053000   16.356232731    27.567136821    10.511724720      0    0    0 #  hpan/H
  72    12  4    0.053000   16.368016744    29.251733189    10.437700061      0    0    0 #  hpan/H
  73    13  2   -0.106000    0.631167160     2.911312953    15.336472551      0    0    0 #  c2/C
  74    13  4    0.053000    0.643000024     2.113310836    16.210257571      0    0    0 #  hpan/H
  75    13  4    0.053000    0.654784038     3.797907204    16.136232913      0    0    0 #  hpan/H
  76    13  2   -0.106000   16.246167160     2.911312953    15.336472551      0    0    0 #  c2/C
  77    13  4    0.053000   16.258000024     2.113310836    16.210257571      0    0    0 #  hpan/H
  78    13  4    0.053000   16.269784038     3.797907204    16.136232913      0    0    0 #  hpan/H
  79    14  2   -0.106000    0.690106784    18.261199797    15.336472551      0    0    0 #  c2/C
  80    14  4    0.053000    0.701939648    17.463197680    16.210257571      0    0    0 #  hpan/H
  81    14  4    0.053000    0.713723662    19.147794048    16.136232913      0    0    0 #  hpan/H
  82    14  2   -0.106000   16.305106784    18.261199797    15.336472551      0    0    0 #  c2/C
  83    14  4    0.053000   16.316939648    17.463197680    16.210257571      0    0    0 #  hpan/H
  84    14  4    0.053000   16.328723662    19.147794048    16.136232913      0    0    0 #  hpan/H
  85    15  2   -0.106000    0.650813702     8.027941901    15.336472551      0    0    0 #  c2/C
  86    15  4    0.053000    0.662646565     7.229939784    16.210257571      0    0    0 #  hpan/H
  87    15  4    0.053000    0.674430579     8.914536152    16.136232913      0    0    0 #  hpan/H
  88    15  2   -0.106000   16.265813702     8.027941901    15.336472551      0    0    0 #  c2/C
  89    15  4    0.053000   16.277646565     7.229939784    16.210257571      0    0    0 #  hpan/H
  90    15  4    0.053000   16.289430579     8.914536152    16.136232913      0    0    0 #  hpan/H
  91    16  2   -0.106000    0.709753326    23.377828745    15.336472551      0    0    0 #  c2/C
  92    16  4    0.053000    0.721586189    22.579826628    16.210257571      0    0    0 #  hpan/H
  93    16  4    0.053000    0.733370203    24.264422996    16.136232913      0    0    0 #  hpan/H
  94    16  2   -0.106000   16.324753326    23.377828745    15.336472551      0    0    0 #  c2/C
  95    16  4    0.053000   16.336586189    22.579826628    16.210257571      0    0    0 #  hpan/H
  96    16  4    0.053000   16.348370203    24.264422996    16.136232913      0    0    0 #  hpan/H
  97    17  2   -0.106000    0.670460243    13.144570849    15.336472551      0    0    0 #  c2/C
  98    17  4    0.053000    0.682293107    12.346568732    16.210257571      0    0    0 #  hpan/H
  99    17  4    0.053000    0.694077120    14.031165100    16.136232913      0    0    0 #  hpan/H
 100    17  2   -0.106000   16.285460243    13.144570849    15.336472551      0    0    0 #  c2/C
 101    17  4    0.053000   16.297293107    12.346568732    16.210257571      0    0    0 #  hpan/H
 102    17  4    0.053000   16.309077120    14.031165100    16.136232913      0    0    0 #  hpan/H
 103    18  2   -0.106000    0.729399867    28.494457693    15.336472551      0    0    0 #  c2/C
 104    18  4    0.053000    0.741232731    27.696455576    16.210257571      0    0    0 #  hpan/H
 105    18  4    0.053000    0.753016744    29.381051944    16.136232913      0    0    0 #  hpan/H
 106    18  2   -0.106000   16.344399867    28.494457693    15.336472551      0    0    0 #  c2/C
 107    18  4    0.053000   16.356232731    27.696455576    16.210257571      0    0    0 #  hpan/H
 108    18  4    0.053000   16.368016744    29.381051944    16.136232913      0    0    0 #  hpan/H
 109    1   2   -0.106000    5.885575277     2.652675444     3.939406848      0    0    0 #  c2/C
 110    1   4    0.053000    5.897408141     1.854673327     4.813191868      0    0    0 #  hpan/H
 111    1   1    0.106000    4.652782844     2.609000894     3.002847879      0    0    0 #  c1/C
 112    1   4    0.053000    4.666844083     3.409529540     2.210192644      0    0    0 #  hpan/H
 113    1   3    0.271000    4.659501525     1.415882412     2.049533857      0    0    0 #  ct/C
 114    1   5   -0.430000    4.786568442    30.945197062     1.115972272      0   -1    0 #  nt/N
 115    1   4    0.053000    5.909192155     3.539269695     4.739167210      0    0    0 #  hpan/H
 116    1   2   -0.106000   21.500575277     2.652675444     3.939406848      0    0    0 #  c2/C
 117    1   4    0.053000   21.512408141     1.854673327     4.813191868      0    0    0 #  hpan/H
 118    1   1    0.106000   20.267782844     2.609000894     3.002847879      0    0    0 #  c1/C
 119    1   4    0.053000   20.281844083     3.409529540     2.210192644      0    0    0 #  hpan/H
 120    1   3    0.271000   20.274501525     1.415882412     2.049533857      0    0    0 #  ct/C
 121    1   5   -0.430000   20.401568442    30.945197062     1.115972272      0   -1    0 #  nt/N
 122    1   4    0.053000   21.524192155     3.539269695     4.739167210      0    0    0 #  hpan/H
 123    2   2   -0.106000    5.944514901    18.002562288     3.939406848      0    0    0 #  c2/C
 124    2   4    0.053000    5.956347765    17.204560170     4.813191868      0    0    0 #  hpan/H
 125    2   1    0.106000    4.711722468    17.958887738     3.002847879      0    0    0 #  c1/C
 126    2   4    0.053000    4.725783707    18.759416384     2.210192644      0    0    0 #  hpan/H
 127    2   3    0.271000    4.718441149    16.765769256     2.049533857      0    0    0 #  ct/C
 128    2   5   -0.430000    4.727628818    15.595310218     1.115972272      0    0    0 #  nt/N
 129    2   4    0.053000    5.968131779    18.889156539     4.739167210      0    0    0 #  hpan/H
 130    2   2   -0.106000   21.559514901    18.002562288     3.939406848      0    0    0 #  c2/C
 131    2   4    0.053000   21.571347765    17.204560170     4.813191868      0    0    0 #  hpan/H
 132    2   1    0.106000   20.326722468    17.958887738     3.002847879      0    0    0 #  c1/C
 133    2   4    0.053000   20.340783707    18.759416384     2.210192644      0    0    0 #  hpan/H
 134    2   3    0.271000   20.333441149    16.765769256     2.049533857      0    0    0 #  ct/C
 135    2   5   -0.430000   20.342628818    15.595310218     1.115972272      0    0    0 #  nt/N
 136    2   4    0.053000   21.583131779    18.889156539     4.739167210      0    0    0 #  hpan/H
 137    3   2   -0.106000    5.905221819     7.769304392     3.939406848      0    0    0 #  c2/C
 138    3   4    0.053000    5.917054682     6.971302275     4.813191868      0    0    0 #  hpan/H
 139    3   1    0.106000    4.672429385     7.725629842     3.002847879      0    0    0 #  c1/C
 140    3   4    0.053000    4.686490624     8.526158488     2.210192644      0    0    0 #  hpan/H
 141    3   3    0.271000    4.679148067     6.532511360     2.049533857      0    0    0 #  ct/C
 142    3   5   -0.430000    4.688335736     5.362052322     1.115972272      0    0    0 #  nt/N
 143    3   4    0.053000    5.928838696     8.655898643     4.739167210      0    0    0 #  hpan/H
 144    3   2   -0.106000   21.520221819     7.769304392     3.939406848      0    0    0 #  c2/C
 145    3   4    0.053000   21.532054682     6.971302275     4.813191868      0    0    0 #  hpan/H
 146    3   1    0.106000   20.287429385     7.725629842     3.002847879      0    0    0 #  c1/C
 147    3   4    0.053000   20.301490624     8.526158488     2.210192644      0    0    0 #  hpan/H
 148    3   3    0.271000   20.294148067     6.532511360     2.049533857      0    0    0 #  ct/C
 149    3   5   -0.430000   20.303335736     5.362052322     1.115972272      0    0    0 #  nt/N
 150    3   4    0.053000   21.543838696     8.655898643     4.739167210      0    0    0 #  hpan/H
 151    4   2   -0.106000    5.964161443    23.119191236     3.939406848      0    0    0 #  c2/C
 152    4   4    0.053000    5.975994306    22.321189118     4.813191868      0    0    0 #  hpan/H
 153    4   1    0.106000    4.731369009    23.075516686     3.002847879      0    0    0 #  c1/C
 154    4   4    0.053000    4.745430248    23.876045332     2.210192644      0    0    0 #  hpan/H
 155    4   3    0.271000    4.738087691    21.882398204     2.049533857      0    0    0 #  ct/C
 156    4   5   -0.430000    4.747275360    20.711939166     1.115972272      0    0    0 #  nt/N
 157    4   4    0.053000    5.987778320    24.005785487     4.739167210      0    0    0 #  hpan/H
 158    4   2   -0.106000   21.579161443    23.119191236     3.939406848      0    0    0 #  c2/C
 159    4   4    0.053000   21.590994306    22.321189118     4.813191868      0    0    0 #  hpan/H
 160    4   1    0.106000   20.346369009    23.075516686     3.002847879      0    0    0 #  c1/C
 161    4   4    0.053000   20.360430248    23.876045332     2.210192644      0    0    0 #  hpan/H
 162    4   3    0.271000   20.353087691    21.882398204     2.049533857      0    0    0 #  ct/C
 163    4   5   -0.430000   20.362275360    20.711939166     1.115972272      0    0    0 #  nt/N
 164    4   4    0.053000   21.602778320    24.005785487     4.739167210      0    0    0 #  hpan/H
 165    5   2   -0.106000    5.924868360    12.885933340     3.939406848      0    0    0 #  c2/C
 166    5   4    0.053000    5.936701224    12.087931222     4.813191868      0    0    0 #  hpan/H
 167    5   1    0.106000    4.692075927    12.842258790     3.002847879      0    0    0 #  c1/C
 168    5   4    0.053000    4.706137165    13.642787436     2.210192644      0    0    0 #  hpan/H
 169    5   3    0.271000    4.698794608    11.649140308     2.049533857      0    0    0 #  ct/C
 170    5   5   -0.430000    4.707982277    10.478681270     1.115972272      0    0    0 #  nt/N
 171    5   4    0.053000    5.948485237    13.772527591     4.739167210      0    0    0 #  hpan/H
 172    5   2   -0.106000   21.539868360    12.885933340     3.939406848      0    0    0 #  c2/C
 173    5   4    0.053000   21.551701224    12.087931222     4.813191868      0    0    0 #  hpan/H
 174    5   1    0.106000   20.307075927    12.842258790     3.002847879      0    0    0 #  c1/C
 175    5   4    0.053000   20.321137165    13.642787436     2.210192644      0    0    0 #  hpan/H
 176    5   3    0.271000   20.313794608    11.649140308     2.049533857      0    0    0 #  ct/C
 177    5   5   -0.430000   20.322982277    10.478681270     1.115972272      0    0    0 #  nt/N