LAMMPS data file via write_data, version 12 Jun 2025, timestep = 6000, units = real

31 atoms
6 atom types
31 bonds
9 bond types
54 angles
14 angle types
68 dihedrals
14 dihedral types
28 impropers
11 improper types

-4.038168617918993 2.6685879719147194 xlo xhi
-5.578953389970719 3.554663067964776 ylo yhi
-2.5617375242366505 2.5621310722419475 zlo zhi
-0.19138734321947173 0.5302674790411268 0 xy xz yz

Masses

1 12.01115
2 12.01115
3 12.01115
4 1.00797
5 1.00797
6 14.0067

Pair Coeffs # lj/class2/coul/long

1 0.054 4.01
2 0.054 3.9
3 0.064 4.01
4 0.02 2.995
5 0.013 1.098
6 0.065 4.07

Bond Coeffs # class2

1 1.53 299.67 -501.77 679.81
2 1.501 321.902 -521.821 572.163
3 1.101 345 -691.89 844.6
4 1.501 321.902 -521.821 572.163
5 1.101 345 -691.89 844.6
6 1.417 470.836 -627.618 1327.63
7 1.0982 372.825 -803.453 894.317
8 1.3912 447.044 -784.535 886.167
9 1.0012 465.861 -1066.24 1496.56

Angle Coeffs # class2

1 110.77 41.453 -10.604 5.129
2 120.05 44.7148 -22.7352 0
3 108.4 43.9594 -8.3924 -9.3379
4 110.77 41.453 -10.604 5.129
5 120.05 44.7148 -22.7352 0
6 111 44.3234 -9.4454 0
7 111 44.3234 -9.4454 0
8 118.9 61.0226 -34.9931 0
9 117.94 35.1558 -12.4682 0
10 121.458 61.0647 -21.6172 0
11 111.873 40.8369 -15.6673 0
12 107.66 39.641 -12.921 -2.4318
13 107.66 39.641 -12.921 -2.4318
14 107.513 42.5182 -21.7566 -4.3372

BondBond Coeffs

1 3.3872 1.53 1.101
2 12.0676 1.501 1.417
3 0 1.53 1.501
4 3.3872 1.53 1.101
5 12.0676 1.501 1.417
6 2.9168 1.501 1.101
7 2.9168 1.501 1.101
8 68.2856 1.417 1.417
9 1.0795 1.417 1.0982
10 46.9513 1.417 1.3912
11 4.5393 1.3912 1.0012
12 5.3316 1.101 1.101
13 5.3316 1.101 1.101
14 -9.9447 1.0012 1.0012

BondAngle Coeffs

1 20.754 11.421 1.53 1.101
2 47.0579 31.0771 1.501 1.417
3 0 0 1.53 1.501
4 20.754 11.421 1.53 1.101
5 47.0579 31.0771 1.501 1.417
6 26.4608 11.7717 1.501 1.101
7 26.4608 11.7717 1.501 1.101
8 28.8708 28.8708 1.417 1.417
9 20.0033 24.2183 1.417 1.0982
10 39.404 73.6548 1.417 1.3912
11 38.5704 16.5524 1.3912 1.0012
12 18.103 18.103 1.101 1.101
13 18.103 18.103 1.101 1.101
14 17.1597 17.1597 1.0012 1.0012

Dihedral Coeffs # class2

1 -0.0228 0 0.028 0 -0.1863 0
2 -0.1432 0 0.0617 0 -0.1083 0
3 -0.2802 0 -0.0678 0 -0.0122 0
4 -0.2801 0 -0.0678 0 -0.0122 0
5 -0.2801 0 -0.0678 0 -0.0122 0
6 0 0 4.4072 0 0 0
7 0 0 4.4072 0 0 0
8 8.3667 0 1.1932 0 0 0
9 0 0 3.9661 0 0 0
10 0 0 1.559 0 0 0
11 0 0 3 0 0 0
12 0 0 3 0 0 0
13 0 0 5.3826 0 0 0
14 0 0 1.219 0 0 0

AngleAngleTorsion Coeffs

1 0 108.4 110.77
2 -12.564 110.77 110.77
3 0 108.4 120.05
4 -5.8888 111 120.05
5 -5.8888 111 120.05
6 -14.4097 120.05 118.9
7 -14.4097 120.05 118.9
8 0 118.9 118.9
9 -4.8141 118.9 117.94
10 4.4444 120.05 117.94
11 0 120.05 121.458
12 0 120.05 121.458
13 0 118.9 121.458
14 -7.1755 121.458 111.872

EndBondTorsion Coeffs

1 0 0 0 0 0 0 1.501 1.101
2 0.213 0.312 0.0777 0.213 0.312 0.0777 1.101 1.101
3 0 0 0 0 0 0 1.53 1.417
4 1.3997 0.7756 0 -0.5835 1.122 0.3978 1.101 1.417
5 1.3997 0.7756 0 -0.5835 1.122 0.3978 1.101 1.417
6 0 0.2421 0 0 -0.6918 0 1.501 1.417
7 0 0.2421 0 0 -0.6918 0 1.501 1.417
8 -0.1185 6.3204 0 -0.1185 6.3204 0 1.417 1.417
9 0 -6.8958 0 0 -0.4669 0 1.417 1.0982
10 0 -1.797 0 0 -0.4879 0 1.501 1.0982
11 0 0 0 0 0 0 1.501 1.3912
12 0 0 0 0 0 0 1.501 1.3912
13 0 -6.5404 0 0 -7.3477 0 1.417 1.3912
14 0 -3.7281 0 0 0.2849 0 1.417 1.0012

MiddleBondTorsion Coeffs

1 0 0 0 1.53
2 -14.261 -0.5322 -0.4864 1.53
3 0 0 0 1.501
4 -5.5679 1.4083 0.301 1.501
5 -5.5679 1.4083 0.301 1.501
6 0 9.1792 0 1.417
7 0 9.1792 0 1.417
8 27.5989 -2.312 0 1.417
9 0 -1.1521 0 1.417
10 0 3.9421 0 1.417
11 0 0 0 1.417
12 0 0 0 1.417
13 0 -0.5693 0 1.417
14 0 3.2085 0 1.3912

BondBond13 Coeffs

1 0 1.501 1.101
2 0 1.101 1.101
3 0 1.53 1.417
4 -3.4826 1.101 1.417
5 -3.4826 1.101 1.417
6 2.5085 1.501 1.417
7 2.5085 1.501 1.417
8 53 1.417 1.417
9 -6.2741 1.417 1.0982
10 0.8743 1.501 1.0982
11 0 1.501 1.3912
12 0 1.501 1.3912
13 -9.7999 1.417 1.3912
14 4.2366 1.417 1.0012

AngleTorsion Coeffs

1 0 0 0 0 0 0 108.4 110.77
2 -0.8085 0.5569 -0.2466 -0.8085 0.5569 -0.2466 110.77 110.77
3 0 0 0 0 0 0 108.4 120.05
4 4.6266 0.1632 0.0461 0.2251 0.6548 0.1237 111 120.05
5 4.6266 0.1632 0.0461 0.2251 0.6548 0.1237 111 120.05
6 0 -4.4683 0 0 3.8987 0 120.05 118.9
7 0 -4.4683 0 0 3.8987 0 120.05 118.9
8 1.9767 1.0239 0 1.9767 1.0239 0 118.9 118.9
9 0 2.5014 0 0 2.7147 0 118.9 117.94
10 0 -0.1242 0 0 3.4601 0 120.05 117.94
11 0 0 0 0 0 0 120.05 121.458
12 0 0 0 0 0 0 120.05 121.458
13 0 9.0901 0 0 -6.0882 0 118.9 121.458
14 0 1.2616 0 0 0.7744 0 121.458 111.872

Improper Coeffs # class2

1 7.8153 0
2 7.8153 0
3 4.8912 0
4 10.7855 0
5 0 0
6 0 0
7 0 0
8 0 0
9 0 0
10 0 0
11 0 0

AngleAngle Coeffs

1 0 0 0 120.05 118.9 120.05
2 0 0 0 120.05 118.9 120.05
3 0 0 0 118.9 117.94 117.94
4 0 0 0 118.9 121.458 121.458
5 0 0 0 111.872 107.513 111.872
6 0.2738 -0.4825 0.2738 110.77 110.77 107.66
7 2.0403 -1.8202 1.0827 108.4 110.77 111
8 0.2738 -0.4825 0.2738 110.77 110.77 107.66
9 2.3794 3.0118 2.3794 111 111 107.66
10 2.3794 3.0118 2.3794 111 111 107.66
11 -0.3157 -0.3157 -0.3157 107.66 107.66 107.66

Atoms # full

1 1 3 0 -1.676469858032298 -0.22742836088424934 -0.6987230878752815 0 0 0
2 1 3 0.0827 -0.9906722516611035 -1.4863196565570131 -0.4515968284776335 0 0 0
3 1 3 0 0.18546846192523425 -1.4528244094980876 0.3053864085053095 0 0 0
4 1 3 -0.1268 0.6637100232516335 -0.25927263577220216 0.7579358301674528 0 0 0
5 1 3 0 0.08172928817367264 0.9402623259664482 0.5019064763676453 0 0 0
6 1 3 0.0827 -1.0382338227314873 1.002095203557455 -0.31838013941426224 0 0 0
7 1 1 -0.106 0.7632690905411135 2.1535864618501996 1.0937681698276425 0 0 0
8 1 2 -0.159 1.528548135943037 2.842389274247793 -0.04567276623088823 0 0 0
9 1 1 -0.106 0.938622379914011 -2.8365873929565812 0.833182317900028 0 0 0
10 1 2 -0.159 2.3436075128854243 -2.552791563599069 1.519352430162927 0 0 0
11 1 2 -0.159 -2.9539345211347543 -0.22445416056578704 -1.5155048783834713 0 0 0
12 1 6 -0.5800999999999999 -1.722608952032397 2.1589613641020726 -0.7283399201345406 0 0 0
13 1 6 -0.5800999999999999 -1.4994869616883002 -2.6717791882380078 -1.0776381582375938 0 0 0
14 1 4 0.1268 1.5389943683400418 -0.32402140633785237 1.3766492495930378 0 0 0
15 1 4 0.053 0.17016736099942165 2.945626935023224 1.501228515398548 0 0 0
16 1 4 0.053 1.3396810549441653 1.8188893841927722 1.8873972269574804 0 0 0
17 1 4 0.053 2.3164592497863783 3.53238147766287 0.38222806377999996 0 0 0
18 1 4 0.053 2.040415763601552 2.241424787997161 -0.8283228787530317 0 0 0
19 1 4 0.053 0.8475673729388138 3.417539045280842 -0.6386771989473927 0 0 0
20 1 4 0.053 0.2279401751038117 -3.387497841122093 1.5275439650892544 0 0 0
21 1 4 0.053 0.9728629556225057 -3.5166078173039237 -0.004368408649559896 0 0 0
22 1 4 0.053 2.754440684712155 -3.490513509835551 1.7635808995410596 0 0 0
23 1 4 0.053 -3.6099840899906424 -1.9884272381413974 0.9585651489148157 1 0 0
24 1 4 0.053 2.259198135933935 -2.037259013179651 2.513069280699555 0 0 0
25 1 4 0.053 -3.2720790548723917 -1.2426520145953255 -1.7580887292493204 0 0 0
26 1 4 0.053 -3.764671698800341 0.32157862755563826 -0.9350172499997784 0 0 0
27 1 4 0.053 -2.802198244112059 0.3376297793869023 -2.4556069606926263 0 0 0
28 1 5 0.2487 -2.7067073341145904 2.03011116221022 -0.6986925795945118 0 0 0
29 1 5 0.2487 -1.4655911350989537 2.9921429803297492 -0.14733556869720799 0 0 0
30 1 5 0.2487 -0.8049428069961682 -3.297732101882361 -1.2665852334267897 0 0 0
31 1 5 0.2487 -2.196462214201972 -2.4849734338851817 -1.699292460676013 0 0 0

Velocities

1 -0.002553899524995283 0.0033753211536757147 -0.006126551186312442
2 0.00024752677309610105 0.0002678795528216573 -0.00399703977217178
3 0.0024667402035899954 0.003201751309668837 -0.0009188191062631313
4 -0.0008081243860011418 0.0014304339789887471 -0.0028149552202486167
5 0.0006864862244109059 -0.002116705692679519 0.009700519691159724
6 0.00031840295428176024 0.001390599371344072 -0.00046946420860668184
7 0.0021983769203521653 -0.0028225094853257197 0.00019133329883730065
8 0.0007063179842174364 0.0011549435178567935 0.005354411923736029
9 -0.0037138432559629337 -0.0011840790418846008 0.0007026174774404268
10 -0.005857618637605219 0.0026484417609805586 0.003082515052993887
11 0.0001778778189099177 -0.004520050180751087 0.0022908972184500784
12 0.0022142828339933485 0.003934525014743757 -0.007124987147110444
13 0.004195768391655932 -0.003003903483273518 -0.0010275742789102062
14 -0.003751512757289942 -0.03775414979457445 0.01972063819701582
15 0.004430387006987104 0.016622232695681565 -0.012453747545530547
16 -0.008199754775343127 0.01392660396271887 0.006630822170981449
17 -0.011362094430299006 0.023313977772533922 -0.01725901772426669
18 -0.002995182933876269 0.020371605817094896 0.014869665420365503
19 -0.018749791618786798 -0.04353708976782215 0.0034246706998473124
20 0.001767070974984791 0.023587786243568276 -0.030284445709754516
21 0.023233292648396107 0.031866388509494914 0.014610825026694231
22 -0.007546859496575265 -0.03294879260004177 -0.007822547079734917
23 0.0004015459998146679 0.015219393801634461 -0.0049224306524608295
24 -0.005931622176965682 -0.004495560300912881 -0.007166709246483852
25 0.035962778806167536 -0.025402275444191394 0.021735474819605166
26 -0.02974139854392594 0.011656041472480248 0.007659966984488605
27 -0.0013728458290330442 -0.014898223269019057 0.017206086424809825
28 0.021131900883231493 -0.001878744208863235 -0.017534427334247465
29 -0.002424322221965017 -0.02547964715566143 0.007869194240487596
30 -0.015389475801405365 -0.006728568487386991 0.02488628497553914
31 0.004531244877709347 -0.01004828078727518 -0.011241932127494563

Bonds

1 6 1 2
2 6 1 6
3 6 2 3
4 8 2 13
5 6 3 4
6 6 4 5
7 7 4 14
8 6 5 6
9 8 6 12
10 2 7 5
11 1 7 8
12 3 7 15
13 3 7 16
14 5 8 17
15 5 8 18
16 5 8 19
17 2 9 3
18 1 9 10
19 3 9 20
20 3 9 21
21 5 10 22
22 5 10 23
23 5 10 24
24 4 11 1
25 5 11 25
26 5 11 26
27 5 11 27
28 9 28 12
29 9 29 12
30 9 30 13
31 9 31 13

Angles

1 8 2 1 6
2 5 11 1 6
3 5 11 1 2
4 10 3 2 13
5 10 1 2 13
6 8 1 2 3
7 2 9 3 2
8 8 2 3 4
9 2 9 3 4
10 9 5 4 14
11 8 3 4 5
12 9 3 4 14
13 8 4 5 6
14 2 7 5 6
15 2 7 5 4
16 10 1 6 12
17 8 1 6 5
18 10 5 6 12
19 6 5 7 15
20 4 8 7 16
21 3 8 7 5
22 4 8 7 15
23 12 15 7 16
24 6 5 7 16
25 13 17 8 19
26 1 7 8 19
27 13 17 8 18
28 1 7 8 18
29 13 18 8 19
30 1 7 8 17
31 3 10 9 3
32 4 10 9 20
33 6 3 9 21
34 6 3 9 20
35 12 20 9 21
36 4 10 9 21
37 1 9 10 22
38 1 9 10 24
39 13 22 10 24
40 13 23 10 24
41 1 9 10 23
42 13 22 10 23
43 13 25 11 26
44 7 1 11 26
45 13 26 11 27
46 7 1 11 25
47 7 1 11 27
48 13 25 11 27
49 11 6 12 29
50 11 6 12 28
51 14 28 12 29
52 14 30 13 31
53 11 2 13 31
54 11 2 13 30

Dihedrals

1 11 11 1 6 12
2 13 2 1 6 12
3 13 6 1 2 13
4 11 11 1 2 13
5 8 2 1 6 5
6 6 11 1 2 3
7 6 11 1 6 5
8 8 3 2 1 6
9 14 1 2 13 30
10 8 1 2 3 4
11 14 3 2 13 31
12 14 3 2 13 30
13 14 1 2 13 31
14 7 9 3 2 1
15 13 4 3 2 13
16 10 9 3 4 14
17 8 2 3 4 5
18 9 2 3 4 14
19 12 9 3 2 13
20 7 9 3 4 5
21 8 3 4 5 6
22 7 7 5 4 3
23 12 7 5 6 12
24 13 4 5 6 12
25 10 7 5 4 14
26 9 6 5 4 14
27 7 7 5 6 1
28 14 1 6 12 28
29 8 1 6 5 4
30 14 5 6 12 28
31 14 1 6 12 29
32 14 5 6 12 29
33 4 15 7 5 4
34 4 15 7 5 6
35 3 8 7 5 4
36 3 8 7 5 6
37 4 16 7 5 4
38 4 16 7 5 6
39 2 16 7 8 18
40 2 15 7 8 19
41 1 5 7 8 17
42 2 16 7 8 17
43 2 15 7 8 18
44 1 5 7 8 19
45 2 16 7 8 19
46 2 15 7 8 17
47 1 5 7 8 18
48 3 10 9 3 4
49 4 20 9 3 2
50 4 21 9 3 4
51 3 10 9 3 2
52 4 20 9 3 4
53 4 21 9 3 2
54 2 21 9 10 23
55 1 3 9 10 22
56 2 20 9 10 22
57 2 21 9 10 22
58 1 3 9 10 24
59 2 20 9 10 24
60 2 21 9 10 24
61 1 3 9 10 23
62 2 20 9 10 23
63 5 26 11 1 6
64 5 27 11 1 2
65 5 25 11 1 6
66 5 26 11 1 2
67 5 27 11 1 6
68 5 25 11 1 2

Impropers

1 2 11 1 2 6
2 4 1 2 3 13
3 1 9 3 2 4
4 3 3 4 5 14
5 1 7 5 4 6
6 4 1 6 5 12
7 8 8 7 15 16
8 9 5 7 15 16
9 7 8 7 5 16
10 7 8 7 5 15
11 6 7 8 17 18
12 6 7 8 18 19
13 6 7 8 17 19
14 11 17 8 18 19
15 9 3 9 20 21
16 7 10 9 3 21
17 8 10 9 20 21
18 7 10 9 3 20
19 6 9 10 22 24
20 11 22 10 23 24
21 6 9 10 22 23
22 6 9 10 23 24
23 10 1 11 25 27
24 11 25 11 26 27
25 10 1 11 25 26
26 10 1 11 26 27
27 5 6 12 28 29
28 5 2 13 30 31
