LAMMPS data file via write_data, version 12 Jun 2025, timestep = 4000, units = real

31 atoms
6 atom types
31 bonds
9 bond types
54 angles
14 angle types
68 dihedrals
14 dihedral types
28 impropers
11 improper types

-5.278472117005455 3.9088914709999485 xlo xhi
-5.5657324889061925 3.541442166902024 ylo yhi
-2.4364617256980567 2.436855273701279 zlo zhi
-0.1908332772279716 0.5043379765077762 0 xy xz yz

Masses

1 12.01115
2 12.01115
3 12.01115
4 1.00797
5 1.00797
6 14.0067

Pair Coeffs # lj/class2/coul/long

1 0.054 4.01
2 0.054 3.9
3 0.064 4.01
4 0.02 2.995
5 0.013 1.098
6 0.065 4.07

Bond Coeffs # class2

1 1.53 299.67 -501.77 679.81
2 1.501 321.902 -521.821 572.163
3 1.101 345 -691.89 844.6
4 1.501 321.902 -521.821 572.163
5 1.101 345 -691.89 844.6
6 1.417 470.836 -627.618 1327.63
7 1.0982 372.825 -803.453 894.317
8 1.3912 447.044 -784.535 886.167
9 1.0012 465.861 -1066.24 1496.56

Angle Coeffs # class2

1 110.77 41.453 -10.604 5.129
2 120.05 44.7148 -22.7352 0
3 108.4 43.9594 -8.3924 -9.3379
4 110.77 41.453 -10.604 5.129
5 120.05 44.7148 -22.7352 0
6 111 44.3234 -9.4454 0
7 111 44.3234 -9.4454 0
8 118.9 61.0226 -34.9931 0
9 117.94 35.1558 -12.4682 0
10 121.458 61.0647 -21.6172 0
11 111.873 40.8369 -15.6673 0
12 107.66 39.641 -12.921 -2.4318
13 107.66 39.641 -12.921 -2.4318
14 107.513 42.5182 -21.7566 -4.3372

BondBond Coeffs

1 3.3872 1.53 1.101
2 12.0676 1.501 1.417
3 0 1.53 1.501
4 3.3872 1.53 1.101
5 12.0676 1.501 1.417
6 2.9168 1.501 1.101
7 2.9168 1.501 1.101
8 68.2856 1.417 1.417
9 1.0795 1.417 1.0982
10 46.9513 1.417 1.3912
11 4.5393 1.3912 1.0012
12 5.3316 1.101 1.101
13 5.3316 1.101 1.101
14 -9.9447 1.0012 1.0012

BondAngle Coeffs

1 20.754 11.421 1.53 1.101
2 47.0579 31.0771 1.501 1.417
3 0 0 1.53 1.501
4 20.754 11.421 1.53 1.101
5 47.0579 31.0771 1.501 1.417
6 26.4608 11.7717 1.501 1.101
7 26.4608 11.7717 1.501 1.101
8 28.8708 28.8708 1.417 1.417
9 20.0033 24.2183 1.417 1.0982
10 39.404 73.6548 1.417 1.3912
11 38.5704 16.5524 1.3912 1.0012
12 18.103 18.103 1.101 1.101
13 18.103 18.103 1.101 1.101
14 17.1597 17.1597 1.0012 1.0012

Dihedral Coeffs # class2

1 -0.0228 0 0.028 0 -0.1863 0
2 -0.1432 0 0.0617 0 -0.1083 0
3 -0.2802 0 -0.0678 0 -0.0122 0
4 -0.2801 0 -0.0678 0 -0.0122 0
5 -0.2801 0 -0.0678 0 -0.0122 0
6 0 0 4.4072 0 0 0
7 0 0 4.4072 0 0 0
8 8.3667 0 1.1932 0 0 0
9 0 0 3.9661 0 0 0
10 0 0 1.559 0 0 0
11 0 0 3 0 0 0
12 0 0 3 0 0 0
13 0 0 5.3826 0 0 0
14 0 0 1.219 0 0 0

AngleAngleTorsion Coeffs

1 0 108.4 110.77
2 -12.564 110.77 110.77
3 0 108.4 120.05
4 -5.8888 111 120.05
5 -5.8888 111 120.05
6 -14.4097 120.05 118.9
7 -14.4097 120.05 118.9
8 0 118.9 118.9
9 -4.8141 118.9 117.94
10 4.4444 120.05 117.94
11 0 120.05 121.458
12 0 120.05 121.458
13 0 118.9 121.458
14 -7.1755 121.458 111.872

EndBondTorsion Coeffs

1 0 0 0 0 0 0 1.501 1.101
2 0.213 0.312 0.0777 0.213 0.312 0.0777 1.101 1.101
3 0 0 0 0 0 0 1.53 1.417
4 1.3997 0.7756 0 -0.5835 1.122 0.3978 1.101 1.417
5 1.3997 0.7756 0 -0.5835 1.122 0.3978 1.101 1.417
6 0 0.2421 0 0 -0.6918 0 1.501 1.417
7 0 0.2421 0 0 -0.6918 0 1.501 1.417
8 -0.1185 6.3204 0 -0.1185 6.3204 0 1.417 1.417
9 0 -6.8958 0 0 -0.4669 0 1.417 1.0982
10 0 -1.797 0 0 -0.4879 0 1.501 1.0982
11 0 0 0 0 0 0 1.501 1.3912
12 0 0 0 0 0 0 1.501 1.3912
13 0 -6.5404 0 0 -7.3477 0 1.417 1.3912
14 0 -3.7281 0 0 0.2849 0 1.417 1.0012

MiddleBondTorsion Coeffs

1 0 0 0 1.53
2 -14.261 -0.5322 -0.4864 1.53
3 0 0 0 1.501
4 -5.5679 1.4083 0.301 1.501
5 -5.5679 1.4083 0.301 1.501
6 0 9.1792 0 1.417
7 0 9.1792 0 1.417
8 27.5989 -2.312 0 1.417
9 0 -1.1521 0 1.417
10 0 3.9421 0 1.417
11 0 0 0 1.417
12 0 0 0 1.417
13 0 -0.5693 0 1.417
14 0 3.2085 0 1.3912

BondBond13 Coeffs

1 0 1.501 1.101
2 0 1.101 1.101
3 0 1.53 1.417
4 -3.4826 1.101 1.417
5 -3.4826 1.101 1.417
6 2.5085 1.501 1.417
7 2.5085 1.501 1.417
8 53 1.417 1.417
9 -6.2741 1.417 1.0982
10 0.8743 1.501 1.0982
11 0 1.501 1.3912
12 0 1.501 1.3912
13 -9.7999 1.417 1.3912
14 4.2366 1.417 1.0012

AngleTorsion Coeffs

1 0 0 0 0 0 0 108.4 110.77
2 -0.8085 0.5569 -0.2466 -0.8085 0.5569 -0.2466 110.77 110.77
3 0 0 0 0 0 0 108.4 120.05
4 4.6266 0.1632 0.0461 0.2251 0.6548 0.1237 111 120.05
5 4.6266 0.1632 0.0461 0.2251 0.6548 0.1237 111 120.05
6 0 -4.4683 0 0 3.8987 0 120.05 118.9
7 0 -4.4683 0 0 3.8987 0 120.05 118.9
8 1.9767 1.0239 0 1.9767 1.0239 0 118.9 118.9
9 0 2.5014 0 0 2.7147 0 118.9 117.94
10 0 -0.1242 0 0 3.4601 0 120.05 117.94
11 0 0 0 0 0 0 120.05 121.458
12 0 0 0 0 0 0 120.05 121.458
13 0 9.0901 0 0 -6.0882 0 118.9 121.458
14 0 1.2616 0 0 0.7744 0 121.458 111.872

Improper Coeffs # class2

1 7.8153 0
2 7.8153 0
3 4.8912 0
4 10.7855 0
5 0 0
6 0 0
7 0 0
8 0 0
9 0 0
10 0 0
11 0 0

AngleAngle Coeffs

1 0 0 0 120.05 118.9 120.05
2 0 0 0 120.05 118.9 120.05
3 0 0 0 118.9 117.94 117.94
4 0 0 0 118.9 121.458 121.458
5 0 0 0 111.872 107.513 111.872
6 0.2738 -0.4825 0.2738 110.77 110.77 107.66
7 2.0403 -1.8202 1.0827 108.4 110.77 111
8 0.2738 -0.4825 0.2738 110.77 110.77 107.66
9 2.3794 3.0118 2.3794 111 111 107.66
10 2.3794 3.0118 2.3794 111 111 107.66
11 -0.3157 -0.3157 -0.3157 107.66 107.66 107.66

Atoms # full

1 1 3 0 -1.5529118130733295 0.05557167299948951 -0.6257842266962097 0 0 0
2 1 3 0.0827 -1.180630025373481 -1.286291808548179 -0.4308677723920824 0 0 0
3 1 3 0 0.006845163916335828 -1.5740071781986766 0.2728413110797945 0 0 0
4 1 3 -0.1268 0.7522943837464915 -0.4433020930899012 0.7371912162783061 0 0 0
5 1 3 0 0.466633340426025 0.9063076953258768 0.6018269987065259 0 0 0
6 1 3 0.0827 -0.6787285916021961 1.1064032541368265 -0.17439173007809172 0 0 0
7 1 1 -0.106 1.2463462040192628 2.0635490831311483 1.1054674290617688 0 0 0
8 1 2 -0.159 2.181922693954104 2.5758030373016823 0.003058000142425854 0 0 0
9 1 1 -0.106 0.5388305109033187 -3.0479768078088085 0.3115407969245898 0 0 0
10 1 2 -0.159 1.8493665177500551 -3.275154505944957 1.1142025916385538 0 0 0
11 1 2 -0.159 -2.7659342906270656 0.22916778016194694 -1.4974198819429434 0 0 0
12 1 6 -0.5800999999999999 -1.110683378958564 2.443453068710097 -0.3478046854240677 0 0 0
13 1 6 -0.5800999999999999 -1.9751048170304175 -2.336267115307252 -0.8941994998747842 0 0 0
14 1 4 0.1268 1.6370205296474944 -0.712261155388461 1.3016648641502884 0 0 0
15 1 4 0.053 0.7501465871073716 2.955227364425948 1.557861894497902 0 0 0
16 1 4 0.053 1.9754458964499806 1.7583252489770471 1.9308146424572517 0 0 0
17 1 4 0.053 3.0303143588985897 3.118070826730836 0.4402476780290372 0 0 0
18 1 4 0.053 2.5681100774422845 1.6451615888024724 -0.5464333587623422 0 0 0
19 1 4 0.053 1.6105037284946881 3.180038413737675 -0.7496153981515137 0 0 0
20 1 4 0.053 -0.1870365611931062 -3.6495031554402884 0.854876541914602 0 0 0
21 1 4 0.053 0.5444442366811773 -3.441006571883709 -0.6592288985522354 0 0 0
22 1 4 0.053 2.0988312188490337 -4.347649262474395 1.1249900141730595 0 0 0
23 1 4 0.053 2.7369704649577553 -2.737432080518688 0.6465551857628196 0 0 0
24 1 4 0.053 1.770875690891799 -3.061773118210904 2.2708763634094797 0 0 0
25 1 4 0.053 -2.235514164094158 -0.15489759345354592 2.369587927675652 0 0 -1
26 1 4 0.053 -3.64351380440851 -0.24397888314124483 -1.0752896950706754 0 0 0
27 1 4 0.053 -3.0620652703187825 1.3142124071691947 -1.5105549114312216 0 0 0
28 1 5 0.2487 -2.0912336054832714 2.5206315008391513 -0.29794659579174176 0 0 0
29 1 5 0.2487 -0.7273732627655001 3.060076851154653 0.2785706787449187 0 0 0
30 1 5 0.2487 -1.6676692450348085 -3.31678547217664 -0.942099260255485 0 0 0
31 1 5 0.2487 -2.5168296222430695 -2.0396377416204396 -1.757756595252968 0 0 0

Velocities

1 -0.004489638519439568 0.001077499933797518 -0.00393528080655676
2 0.0006595400857980408 -0.006588749340717639 0.0006710922358797765
3 0.0032668462808700116 0.0016926633896772584 -0.00331603546629489
4 -0.0013527570451742198 0.010700599733060449 0.004830344634892069
5 0.002657932767561521 0.0018258162413924356 -0.00044960362967727996
6 -0.007309618677592644 -0.007968438767332688 0.004655017810317739
7 0.008128145977739691 0.0032701544393667456 -0.005003262038496024
8 -0.0056139263440229265 0.004798151254554483 0.01313516622179477
9 -0.0013174893761589035 -0.0010470094315852068 0.0088229316408361
10 0.001180445133935867 -0.0018056195403467078 -0.00547193209263163
11 -0.007472803122809592 -0.0023313247719344765 -0.006822224068782946
12 0.006408896169368434 -0.0048377352979323005 0.004030875107673641
13 -0.0007666608238046714 -0.0019713031028265097 -0.0018753549898570736
14 -0.02954783779633366 0.0002535822225459001 -0.02313172948645553
15 0.010005434925115303 0.023236973172895147 0.01836861236135431
16 0.0004895560701604043 0.0005853390850967516 -0.0015843592524065208
17 0.009713488726817855 0.01812193189077504 -0.017529706571230312
18 -0.013164182878572623 0.006697831892311568 -0.00917949751721531
19 -0.0054356403946946115 -0.008364556763522891 -0.0237194971842031
20 0.0067413062803123765 0.02069769480176907 0.003001420963231285
21 0.012210969144869216 0.009592867317308183 -0.015078132463420626
22 -0.00035216850671080025 0.0015953479328464483 -0.016350677742808194
23 0.01668178537644306 -0.008077980560189954 0.01347028025842465
24 -0.001355410696459053 0.0008780950515080592 -0.020304125965281035
25 0.013028542374477741 -0.014358868924801644 -0.004905145205317038
26 0.01049236535322983 -0.019618239438070686 -0.0069690231560278594
27 -0.0057957608757156715 0.017786401953398864 -0.026734289485533615
28 -0.0001699160785075263 -0.018384504692780818 0.020665004078315806
29 0.03406056875812061 0.018679153251655325 0.007300896336645286
30 0.009741123293218842 0.01288226181888612 -0.019177175764367838
31 -0.006766207553019717 -0.010766446222715945 0.007106069156503204

Bonds

1 6 1 2
2 6 1 6
3 6 2 3
4 8 2 13
5 6 3 4
6 6 4 5
7 7 4 14
8 6 5 6
9 8 6 12
10 2 7 5
11 1 7 8
12 3 7 15
13 3 7 16
14 5 8 17
15 5 8 18
16 5 8 19
17 2 9 3
18 1 9 10
19 3 9 20
20 3 9 21
21 5 10 22
22 5 10 23
23 5 10 24
24 4 11 1
25 5 11 25
26 5 11 26
27 5 11 27
28 9 28 12
29 9 29 12
30 9 30 13
31 9 31 13

Angles

1 8 2 1 6
2 5 11 1 6
3 5 11 1 2
4 10 3 2 13
5 10 1 2 13
6 8 1 2 3
7 2 9 3 2
8 8 2 3 4
9 2 9 3 4
10 9 5 4 14
11 8 3 4 5
12 9 3 4 14
13 8 4 5 6
14 2 7 5 6
15 2 7 5 4
16 10 1 6 12
17 8 1 6 5
18 10 5 6 12
19 6 5 7 15
20 4 8 7 16
21 3 8 7 5
22 4 8 7 15
23 12 15 7 16
24 6 5 7 16
25 13 17 8 19
26 1 7 8 19
27 13 17 8 18
28 1 7 8 18
29 13 18 8 19
30 1 7 8 17
31 3 10 9 3
32 4 10 9 20
33 6 3 9 21
34 6 3 9 20
35 12 20 9 21
36 4 10 9 21
37 1 9 10 22
38 1 9 10 24
39 13 22 10 24
40 13 23 10 24
41 1 9 10 23
42 13 22 10 23
43 13 25 11 26
44 7 1 11 26
45 13 26 11 27
46 7 1 11 25
47 7 1 11 27
48 13 25 11 27
49 11 6 12 29
50 11 6 12 28
51 14 28 12 29
52 14 30 13 31
53 11 2 13 31
54 11 2 13 30

Dihedrals

1 11 11 1 6 12
2 13 2 1 6 12
3 13 6 1 2 13
4 11 11 1 2 13
5 8 2 1 6 5
6 6 11 1 2 3
7 6 11 1 6 5
8 8 3 2 1 6
9 14 1 2 13 30
10 8 1 2 3 4
11 14 3 2 13 31
12 14 3 2 13 30
13 14 1 2 13 31
14 7 9 3 2 1
15 13 4 3 2 13
16 10 9 3 4 14
17 8 2 3 4 5
18 9 2 3 4 14
19 12 9 3 2 13
20 7 9 3 4 5
21 8 3 4 5 6
22 7 7 5 4 3
23 12 7 5 6 12
24 13 4 5 6 12
25 10 7 5 4 14
26 9 6 5 4 14
27 7 7 5 6 1
28 14 1 6 12 28
29 8 1 6 5 4
30 14 5 6 12 28
31 14 1 6 12 29
32 14 5 6 12 29
33 4 15 7 5 4
34 4 15 7 5 6
35 3 8 7 5 4
36 3 8 7 5 6
37 4 16 7 5 4
38 4 16 7 5 6
39 2 16 7 8 18
40 2 15 7 8 19
41 1 5 7 8 17
42 2 16 7 8 17
43 2 15 7 8 18
44 1 5 7 8 19
45 2 16 7 8 19
46 2 15 7 8 17
47 1 5 7 8 18
48 3 10 9 3 4
49 4 20 9 3 2
50 4 21 9 3 4
51 3 10 9 3 2
52 4 20 9 3 4
53 4 21 9 3 2
54 2 21 9 10 23
55 1 3 9 10 22
56 2 20 9 10 22
57 2 21 9 10 22
58 1 3 9 10 24
59 2 20 9 10 24
60 2 21 9 10 24
61 1 3 9 10 23
62 2 20 9 10 23
63 5 26 11 1 6
64 5 27 11 1 2
65 5 25 11 1 6
66 5 26 11 1 2
67 5 27 11 1 6
68 5 25 11 1 2

Impropers

1 2 11 1 2 6
2 4 1 2 3 13
3 1 9 3 2 4
4 3 3 4 5 14
5 1 7 5 4 6
6 4 1 6 5 12
7 8 8 7 15 16
8 9 5 7 15 16
9 7 8 7 5 16
10 7 8 7 5 15
11 6 7 8 17 18
12 6 7 8 18 19
13 6 7 8 17 19
14 11 17 8 18 19
15 9 3 9 20 21
16 7 10 9 3 21
17 8 10 9 20 21
18 7 10 9 3 20
19 6 9 10 22 24
20 11 22 10 23 24
21 6 9 10 22 23
22 6 9 10 23 24
23 10 1 11 25 27
24 11 25 11 26 27
25 10 1 11 25 26
26 10 1 11 26 27
27 5 6 12 28 29
28 5 2 13 30 31
