LAMMPS data file via write_data, version 12 Jun 2025, timestep = 3000, units = real

31 atoms
6 atom types
31 bonds
9 bond types
54 angles
14 angle types
68 dihedrals
14 dihedral types
28 impropers
11 improper types

-5.635942714480754 4.266362068476507 xlo xhi
-5.133899603267427 3.1096092812644387 ylo yhi
-2.0011286751478234 2.001522223149699 zlo zhi
-0.1727358786613348 0.4142330275176503 0 xy xz yz

Masses

1 12.01115
2 12.01115
3 12.01115
4 1.00797
5 1.00797
6 14.0067

Pair Coeffs # lj/class2/coul/long

1 0.054 4.01
2 0.054 3.9
3 0.064 4.01
4 0.02 2.995
5 0.013 1.098
6 0.065 4.07

Bond Coeffs # class2

1 1.53 299.67 -501.77 679.81
2 1.501 321.902 -521.821 572.163
3 1.101 345 -691.89 844.6
4 1.501 321.902 -521.821 572.163
5 1.101 345 -691.89 844.6
6 1.417 470.836 -627.618 1327.63
7 1.0982 372.825 -803.453 894.317
8 1.3912 447.044 -784.535 886.167
9 1.0012 465.861 -1066.24 1496.56

Angle Coeffs # class2

1 110.77 41.453 -10.604 5.129
2 120.05 44.7148 -22.7352 0
3 108.4 43.9594 -8.3924 -9.3379
4 110.77 41.453 -10.604 5.129
5 120.05 44.7148 -22.7352 0
6 111 44.3234 -9.4454 0
7 111 44.3234 -9.4454 0
8 118.9 61.0226 -34.9931 0
9 117.94 35.1558 -12.4682 0
10 121.458 61.0647 -21.6172 0
11 111.873 40.8369 -15.6673 0
12 107.66 39.641 -12.921 -2.4318
13 107.66 39.641 -12.921 -2.4318
14 107.513 42.5182 -21.7566 -4.3372

BondBond Coeffs

1 3.3872 1.53 1.101
2 12.0676 1.501 1.417
3 0 1.53 1.501
4 3.3872 1.53 1.101
5 12.0676 1.501 1.417
6 2.9168 1.501 1.101
7 2.9168 1.501 1.101
8 68.2856 1.417 1.417
9 1.0795 1.417 1.0982
10 46.9513 1.417 1.3912
11 4.5393 1.3912 1.0012
12 5.3316 1.101 1.101
13 5.3316 1.101 1.101
14 -9.9447 1.0012 1.0012

BondAngle Coeffs

1 20.754 11.421 1.53 1.101
2 47.0579 31.0771 1.501 1.417
3 0 0 1.53 1.501
4 20.754 11.421 1.53 1.101
5 47.0579 31.0771 1.501 1.417
6 26.4608 11.7717 1.501 1.101
7 26.4608 11.7717 1.501 1.101
8 28.8708 28.8708 1.417 1.417
9 20.0033 24.2183 1.417 1.0982
10 39.404 73.6548 1.417 1.3912
11 38.5704 16.5524 1.3912 1.0012
12 18.103 18.103 1.101 1.101
13 18.103 18.103 1.101 1.101
14 17.1597 17.1597 1.0012 1.0012

Dihedral Coeffs # class2

1 -0.0228 0 0.028 0 -0.1863 0
2 -0.1432 0 0.0617 0 -0.1083 0
3 -0.2802 0 -0.0678 0 -0.0122 0
4 -0.2801 0 -0.0678 0 -0.0122 0
5 -0.2801 0 -0.0678 0 -0.0122 0
6 0 0 4.4072 0 0 0
7 0 0 4.4072 0 0 0
8 8.3667 0 1.1932 0 0 0
9 0 0 3.9661 0 0 0
10 0 0 1.559 0 0 0
11 0 0 3 0 0 0
12 0 0 3 0 0 0
13 0 0 5.3826 0 0 0
14 0 0 1.219 0 0 0

AngleAngleTorsion Coeffs

1 0 108.4 110.77
2 -12.564 110.77 110.77
3 0 108.4 120.05
4 -5.8888 111 120.05
5 -5.8888 111 120.05
6 -14.4097 120.05 118.9
7 -14.4097 120.05 118.9
8 0 118.9 118.9
9 -4.8141 118.9 117.94
10 4.4444 120.05 117.94
11 0 120.05 121.458
12 0 120.05 121.458
13 0 118.9 121.458
14 -7.1755 121.458 111.872

EndBondTorsion Coeffs

1 0 0 0 0 0 0 1.501 1.101
2 0.213 0.312 0.0777 0.213 0.312 0.0777 1.101 1.101
3 0 0 0 0 0 0 1.53 1.417
4 1.3997 0.7756 0 -0.5835 1.122 0.3978 1.101 1.417
5 1.3997 0.7756 0 -0.5835 1.122 0.3978 1.101 1.417
6 0 0.2421 0 0 -0.6918 0 1.501 1.417
7 0 0.2421 0 0 -0.6918 0 1.501 1.417
8 -0.1185 6.3204 0 -0.1185 6.3204 0 1.417 1.417
9 0 -6.8958 0 0 -0.4669 0 1.417 1.0982
10 0 -1.797 0 0 -0.4879 0 1.501 1.0982
11 0 0 0 0 0 0 1.501 1.3912
12 0 0 0 0 0 0 1.501 1.3912
13 0 -6.5404 0 0 -7.3477 0 1.417 1.3912
14 0 -3.7281 0 0 0.2849 0 1.417 1.0012

MiddleBondTorsion Coeffs

1 0 0 0 1.53
2 -14.261 -0.5322 -0.4864 1.53
3 0 0 0 1.501
4 -5.5679 1.4083 0.301 1.501
5 -5.5679 1.4083 0.301 1.501
6 0 9.1792 0 1.417
7 0 9.1792 0 1.417
8 27.5989 -2.312 0 1.417
9 0 -1.1521 0 1.417
10 0 3.9421 0 1.417
11 0 0 0 1.417
12 0 0 0 1.417
13 0 -0.5693 0 1.417
14 0 3.2085 0 1.3912

BondBond13 Coeffs

1 0 1.501 1.101
2 0 1.101 1.101
3 0 1.53 1.417
4 -3.4826 1.101 1.417
5 -3.4826 1.101 1.417
6 2.5085 1.501 1.417
7 2.5085 1.501 1.417
8 53 1.417 1.417
9 -6.2741 1.417 1.0982
10 0.8743 1.501 1.0982
11 0 1.501 1.3912
12 0 1.501 1.3912
13 -9.7999 1.417 1.3912
14 4.2366 1.417 1.0012

AngleTorsion Coeffs

1 0 0 0 0 0 0 108.4 110.77
2 -0.8085 0.5569 -0.2466 -0.8085 0.5569 -0.2466 110.77 110.77
3 0 0 0 0 0 0 108.4 120.05
4 4.6266 0.1632 0.0461 0.2251 0.6548 0.1237 111 120.05
5 4.6266 0.1632 0.0461 0.2251 0.6548 0.1237 111 120.05
6 0 -4.4683 0 0 3.8987 0 120.05 118.9
7 0 -4.4683 0 0 3.8987 0 120.05 118.9
8 1.9767 1.0239 0 1.9767 1.0239 0 118.9 118.9
9 0 2.5014 0 0 2.7147 0 118.9 117.94
10 0 -0.1242 0 0 3.4601 0 120.05 117.94
11 0 0 0 0 0 0 120.05 121.458
12 0 0 0 0 0 0 120.05 121.458
13 0 9.0901 0 0 -6.0882 0 118.9 121.458
14 0 1.2616 0 0 0.7744 0 121.458 111.872

Improper Coeffs # class2

1 7.8153 0
2 7.8153 0
3 4.8912 0
4 10.7855 0
5 0 0
6 0 0
7 0 0
8 0 0
9 0 0
10 0 0
11 0 0

AngleAngle Coeffs

1 0 0 0 120.05 118.9 120.05
2 0 0 0 120.05 118.9 120.05
3 0 0 0 118.9 117.94 117.94
4 0 0 0 118.9 121.458 121.458
5 0 0 0 111.872 107.513 111.872
6 0.2738 -0.4825 0.2738 110.77 110.77 107.66
7 2.0403 -1.8202 1.0827 108.4 110.77 111
8 0.2738 -0.4825 0.2738 110.77 110.77 107.66
9 2.3794 3.0118 2.3794 111 111 107.66
10 2.3794 3.0118 2.3794 111 111 107.66
11 -0.3157 -0.3157 -0.3157 107.66 107.66 107.66

Atoms # full

1 1 3 0 -1.6764368790331883 0.4110350992983314 0.031816463072623424 0 0 0
2 1 3 0.0827 -1.475955521870783 -0.8890553301954744 0.5369937993419431 0 0 0
3 1 3 0 -0.1893240624383905 -1.4855895205648584 0.5583260614900691 0 0 0
4 1 3 -0.1268 0.823110669538873 -0.719509531741215 0.05754594999786766 0 0 0
5 1 3 0 0.658715617792283 0.5349894609212713 -0.46747632029318265 0 0 0
6 1 3 0.0827 -0.6204842963518651 1.139417790947312 -0.4406089936143045 0 0 0
7 1 1 -0.106 1.8534536323927515 1.1945954493804996 -1.121977755313008 0 0 0
8 1 2 -0.159 3.243633723988818 0.5914729255880955 -1.2168797104392386 0 0 0
9 1 1 -0.106 0.035728580467114135 -2.9353582389829964 1.0592559477138788 0 0 0
10 1 2 -0.159 1.4354238668168762 -3.4181528139195247 0.7484980294407637 0 0 0
11 1 2 -0.159 -3.0835362647190263 1.1073519665808726 0.1370441440613419 0 0 0
12 1 6 -0.5800999999999999 -0.7811198825127459 2.464563104224487 -0.9441117882560857 0 0 0
13 1 6 -0.5800999999999999 -2.556195754442064 -1.5800090195339815 1.0843594722737717 0 0 0
14 1 4 0.1268 1.8400470492336538 -1.219664820888826 0.05852675807859997 0 0 0
15 1 4 0.053 1.9065384557575955 1.4061767715966855 1.883796538107462 0 0 -1
16 1 4 0.053 1.9795562295384181 2.198642354607376 -0.639024228016333 0 0 0
17 1 4 0.053 3.896996843352314 1.252345996317386 -1.7304181917711894 0 0 0
18 1 4 0.053 3.7039755814453397 0.4040235059294517 -0.23187472268049603 0 0 0
19 1 4 0.053 3.2002930996742673 -0.3697667156744515 -1.7181509533029595 0 0 0
20 1 4 0.053 -0.4930961814389576 -2.930693612101181 -1.8605923953580976 0 0 1
21 1 4 0.053 -0.6607622080630886 -3.6769898282207807 0.6609577012035737 0 0 0
22 1 4 0.053 1.572184415755288 -4.451459336514606 1.120638866592056 0 0 0
23 1 4 0.053 1.719612257833993 -3.344432006069068 -0.3725548008313835 0 0 0
24 1 4 0.053 2.170813825266052 -2.8000434703614188 1.341590063392295 0 0 0
25 1 4 0.053 -2.9336868168351247 2.1344385143378144 0.5640621560914192 0 0 0
26 1 4 0.053 -3.548287047338398 1.2020375783232558 -0.8789051695988843 0 0 0
27 1 4 0.053 -3.7840393967777453 0.6400307364096367 0.8258539470703714 0 0 0
28 1 5 0.2487 -1.6949559112564359 2.849739778546427 -0.6710672204291808 0 0 0
29 1 5 0.2487 0.04713382499837149 3.0644145190035132 -0.703093522504864 0 0 0
30 1 5 0.2487 -2.476599561485588 -2.5715547019798364 0.8982866486035319 0 0 0
31 1 5 0.2487 -3.485644947176431 -1.2298634572330376 0.9074722438534133 0 0 0

Velocities

1 0.015223722869297329 -0.002579308417672054 -0.006495941511109753
2 -0.0038527738493409555 -0.008010260715301696 -0.005938994056012444
3 0.00044811535554515816 0.0064895995695787275 0.0031215442905552318
4 0.00925566629719015 -0.005457482379086598 0.004065112540932342
5 -0.00539539614045843 0.003321274861794522 0.0012986566119039015
6 0.0038222778204006517 0.0002076685986787294 0.005408342253222774
7 0.002372003232838674 -0.0032607201021080156 -0.0006754128996068129
8 -0.005106165033164528 0.00048788976675362075 0.006673083938530685
9 -0.00689380530860005 0.006184951986206719 0.0053808521334379016
10 -0.006393594117681827 0.004340932868944344 -0.0021590556941369476
11 -0.006739439760665673 0.002710118977387025 0.0019506602392196702
12 -0.002133642924560898 -0.0019683606562938796 -0.000432961419783421
13 0.0014596749054344976 0.002611822371967163 -0.007026408872792715
14 -0.00993922924475725 0.002245043749267312 -0.018383709833897498
15 -0.008025136708462595 -0.0117485774684643 -0.0033439809300245893
16 0.016117653035851397 -0.0289401450003544 0.026611733870767273
17 0.0037994853942515745 0.008231784426024548 0.022064383164266625
18 -0.007592107853950418 -0.006052017929274462 -0.0033968148607602176
19 -0.016155185906828243 0.005420795254014282 -0.0029637795986721806
20 0.02536182900696389 -0.0089535749638651 -0.02081653459031418
21 0.02406301602540827 0.016495444685598094 0.006732249104670144
22 0.015253478201986168 0.008165869825608997 -0.0009209503598738641
23 -0.015598993921421517 0.005670936269942925 -0.004399588277125539
24 0.015947410324572954 -0.03848832468501578 -0.0312563771477046
25 0.008273970312867876 0.0063803818197328815 -0.004752316218350932
26 0.014677273921237306 -0.004889752659928327 -0.01821355977384443
27 -0.003207461513516534 -0.017382488998685663 -0.007699922007139058
28 0.01692798162891265 -0.00401442788577758 0.015676575102222753
29 -0.01701074629050792 0.004507407330348328 -0.00358476190710443
30 0.00654622211721358 -0.02836345186400554 0.003194492117754119
31 -0.021234577776970565 0.02992932876643771 -0.0013797062246667653

Bonds

1 6 1 2
2 6 1 6
3 6 2 3
4 8 2 13
5 6 3 4
6 6 4 5
7 7 4 14
8 6 5 6
9 8 6 12
10 2 7 5
11 1 7 8
12 3 7 15
13 3 7 16
14 5 8 17
15 5 8 18
16 5 8 19
17 2 9 3
18 1 9 10
19 3 9 20
20 3 9 21
21 5 10 22
22 5 10 23
23 5 10 24
24 4 11 1
25 5 11 25
26 5 11 26
27 5 11 27
28 9 28 12
29 9 29 12
30 9 30 13
31 9 31 13

Angles

1 8 2 1 6
2 5 11 1 6
3 5 11 1 2
4 10 3 2 13
5 10 1 2 13
6 8 1 2 3
7 2 9 3 2
8 8 2 3 4
9 2 9 3 4
10 9 5 4 14
11 8 3 4 5
12 9 3 4 14
13 8 4 5 6
14 2 7 5 6
15 2 7 5 4
16 10 1 6 12
17 8 1 6 5
18 10 5 6 12
19 6 5 7 15
20 4 8 7 16
21 3 8 7 5
22 4 8 7 15
23 12 15 7 16
24 6 5 7 16
25 13 17 8 19
26 1 7 8 19
27 13 17 8 18
28 1 7 8 18
29 13 18 8 19
30 1 7 8 17
31 3 10 9 3
32 4 10 9 20
33 6 3 9 21
34 6 3 9 20
35 12 20 9 21
36 4 10 9 21
37 1 9 10 22
38 1 9 10 24
39 13 22 10 24
40 13 23 10 24
41 1 9 10 23
42 13 22 10 23
43 13 25 11 26
44 7 1 11 26
45 13 26 11 27
46 7 1 11 25
47 7 1 11 27
48 13 25 11 27
49 11 6 12 29
50 11 6 12 28
51 14 28 12 29
52 14 30 13 31
53 11 2 13 31
54 11 2 13 30

Dihedrals

1 11 11 1 6 12
2 13 2 1 6 12
3 13 6 1 2 13
4 11 11 1 2 13
5 8 2 1 6 5
6 6 11 1 2 3
7 6 11 1 6 5
8 8 3 2 1 6
9 14 1 2 13 30
10 8 1 2 3 4
11 14 3 2 13 31
12 14 3 2 13 30
13 14 1 2 13 31
14 7 9 3 2 1
15 13 4 3 2 13
16 10 9 3 4 14
17 8 2 3 4 5
18 9 2 3 4 14
19 12 9 3 2 13
20 7 9 3 4 5
21 8 3 4 5 6
22 7 7 5 4 3
23 12 7 5 6 12
24 13 4 5 6 12
25 10 7 5 4 14
26 9 6 5 4 14
27 7 7 5 6 1
28 14 1 6 12 28
29 8 1 6 5 4
30 14 5 6 12 28
31 14 1 6 12 29
32 14 5 6 12 29
33 4 15 7 5 4
34 4 15 7 5 6
35 3 8 7 5 4
36 3 8 7 5 6
37 4 16 7 5 4
38 4 16 7 5 6
39 2 16 7 8 18
40 2 15 7 8 19
41 1 5 7 8 17
42 2 16 7 8 17
43 2 15 7 8 18
44 1 5 7 8 19
45 2 16 7 8 19
46 2 15 7 8 17
47 1 5 7 8 18
48 3 10 9 3 4
49 4 20 9 3 2
50 4 21 9 3 4
51 3 10 9 3 2
52 4 20 9 3 4
53 4 21 9 3 2
54 2 21 9 10 23
55 1 3 9 10 22
56 2 20 9 10 22
57 2 21 9 10 22
58 1 3 9 10 24
59 2 20 9 10 24
60 2 21 9 10 24
61 1 3 9 10 23
62 2 20 9 10 23
63 5 26 11 1 6
64 5 27 11 1 2
65 5 25 11 1 6
66 5 26 11 1 2
67 5 27 11 1 6
68 5 25 11 1 2

Impropers

1 2 11 1 2 6
2 4 1 2 3 13
3 1 9 3 2 4
4 3 3 4 5 14
5 1 7 5 4 6
6 4 1 6 5 12
7 8 8 7 15 16
8 9 5 7 15 16
9 7 8 7 5 16
10 7 8 7 5 15
11 6 7 8 17 18
12 6 7 8 18 19
13 6 7 8 17 19
14 11 17 8 18 19
15 9 3 9 20 21
16 7 10 9 3 21
17 8 10 9 20 21
18 7 10 9 3 20
19 6 9 10 22 24
20 11 22 10 23 24
21 6 9 10 22 23
22 6 9 10 23 24
23 10 1 11 25 27
24 11 25 11 26 27
25 10 1 11 25 26
26 10 1 11 26 27
27 5 6 12 28 29
28 5 2 13 30 31
