LAMMPS data file via write_data, version 12 Jun 2025, timestep = 9000, units = real

31 atoms
6 atom types
31 bonds
9 bond types
54 angles
14 angle types
68 dihedrals
14 dihedral types
28 impropers
11 improper types

-3.634477036164081 2.264896390160293 xlo xhi
-5.6359411874437555 3.611650865434957 ylo yhi
-3.0870373402394646 3.0874308882489894 zlo zhi
-0.19377560710245784 0.6389936900782849 0 xy xz yz

Masses

1 12.01115
2 12.01115
3 12.01115
4 1.00797
5 1.00797
6 14.0067

Pair Coeffs # lj/class2/coul/long

1 0.054 4.01
2 0.054 3.9
3 0.064 4.01
4 0.02 2.995
5 0.013 1.098
6 0.065 4.07

Bond Coeffs # class2

1 1.53 299.67 -501.77 679.81
2 1.501 321.902 -521.821 572.163
3 1.101 345 -691.89 844.6
4 1.501 321.902 -521.821 572.163
5 1.101 345 -691.89 844.6
6 1.417 470.836 -627.618 1327.63
7 1.0982 372.825 -803.453 894.317
8 1.3912 447.044 -784.535 886.167
9 1.0012 465.861 -1066.24 1496.56

Angle Coeffs # class2

1 110.77 41.453 -10.604 5.129
2 120.05 44.7148 -22.7352 0
3 108.4 43.9594 -8.3924 -9.3379
4 110.77 41.453 -10.604 5.129
5 120.05 44.7148 -22.7352 0
6 111 44.3234 -9.4454 0
7 111 44.3234 -9.4454 0
8 118.9 61.0226 -34.9931 0
9 117.94 35.1558 -12.4682 0
10 121.458 61.0647 -21.6172 0
11 111.873 40.8369 -15.6673 0
12 107.66 39.641 -12.921 -2.4318
13 107.66 39.641 -12.921 -2.4318
14 107.513 42.5182 -21.7566 -4.3372

BondBond Coeffs

1 3.3872 1.53 1.101
2 12.0676 1.501 1.417
3 0 1.53 1.501
4 3.3872 1.53 1.101
5 12.0676 1.501 1.417
6 2.9168 1.501 1.101
7 2.9168 1.501 1.101
8 68.2856 1.417 1.417
9 1.0795 1.417 1.0982
10 46.9513 1.417 1.3912
11 4.5393 1.3912 1.0012
12 5.3316 1.101 1.101
13 5.3316 1.101 1.101
14 -9.9447 1.0012 1.0012

BondAngle Coeffs

1 20.754 11.421 1.53 1.101
2 47.0579 31.0771 1.501 1.417
3 0 0 1.53 1.501
4 20.754 11.421 1.53 1.101
5 47.0579 31.0771 1.501 1.417
6 26.4608 11.7717 1.501 1.101
7 26.4608 11.7717 1.501 1.101
8 28.8708 28.8708 1.417 1.417
9 20.0033 24.2183 1.417 1.0982
10 39.404 73.6548 1.417 1.3912
11 38.5704 16.5524 1.3912 1.0012
12 18.103 18.103 1.101 1.101
13 18.103 18.103 1.101 1.101
14 17.1597 17.1597 1.0012 1.0012

Dihedral Coeffs # class2

1 -0.0228 0 0.028 0 -0.1863 0
2 -0.1432 0 0.0617 0 -0.1083 0
3 -0.2802 0 -0.0678 0 -0.0122 0
4 -0.2801 0 -0.0678 0 -0.0122 0
5 -0.2801 0 -0.0678 0 -0.0122 0
6 0 0 4.4072 0 0 0
7 0 0 4.4072 0 0 0
8 8.3667 0 1.1932 0 0 0
9 0 0 3.9661 0 0 0
10 0 0 1.559 0 0 0
11 0 0 3 0 0 0
12 0 0 3 0 0 0
13 0 0 5.3826 0 0 0
14 0 0 1.219 0 0 0

AngleAngleTorsion Coeffs

1 0 108.4 110.77
2 -12.564 110.77 110.77
3 0 108.4 120.05
4 -5.8888 111 120.05
5 -5.8888 111 120.05
6 -14.4097 120.05 118.9
7 -14.4097 120.05 118.9
8 0 118.9 118.9
9 -4.8141 118.9 117.94
10 4.4444 120.05 117.94
11 0 120.05 121.458
12 0 120.05 121.458
13 0 118.9 121.458
14 -7.1755 121.458 111.872

EndBondTorsion Coeffs

1 0 0 0 0 0 0 1.501 1.101
2 0.213 0.312 0.0777 0.213 0.312 0.0777 1.101 1.101
3 0 0 0 0 0 0 1.53 1.417
4 1.3997 0.7756 0 -0.5835 1.122 0.3978 1.101 1.417
5 1.3997 0.7756 0 -0.5835 1.122 0.3978 1.101 1.417
6 0 0.2421 0 0 -0.6918 0 1.501 1.417
7 0 0.2421 0 0 -0.6918 0 1.501 1.417
8 -0.1185 6.3204 0 -0.1185 6.3204 0 1.417 1.417
9 0 -6.8958 0 0 -0.4669 0 1.417 1.0982
10 0 -1.797 0 0 -0.4879 0 1.501 1.0982
11 0 0 0 0 0 0 1.501 1.3912
12 0 0 0 0 0 0 1.501 1.3912
13 0 -6.5404 0 0 -7.3477 0 1.417 1.3912
14 0 -3.7281 0 0 0.2849 0 1.417 1.0012

MiddleBondTorsion Coeffs

1 0 0 0 1.53
2 -14.261 -0.5322 -0.4864 1.53
3 0 0 0 1.501
4 -5.5679 1.4083 0.301 1.501
5 -5.5679 1.4083 0.301 1.501
6 0 9.1792 0 1.417
7 0 9.1792 0 1.417
8 27.5989 -2.312 0 1.417
9 0 -1.1521 0 1.417
10 0 3.9421 0 1.417
11 0 0 0 1.417
12 0 0 0 1.417
13 0 -0.5693 0 1.417
14 0 3.2085 0 1.3912

BondBond13 Coeffs

1 0 1.501 1.101
2 0 1.101 1.101
3 0 1.53 1.417
4 -3.4826 1.101 1.417
5 -3.4826 1.101 1.417
6 2.5085 1.501 1.417
7 2.5085 1.501 1.417
8 53 1.417 1.417
9 -6.2741 1.417 1.0982
10 0.8743 1.501 1.0982
11 0 1.501 1.3912
12 0 1.501 1.3912
13 -9.7999 1.417 1.3912
14 4.2366 1.417 1.0012

AngleTorsion Coeffs

1 0 0 0 0 0 0 108.4 110.77
2 -0.8085 0.5569 -0.2466 -0.8085 0.5569 -0.2466 110.77 110.77
3 0 0 0 0 0 0 108.4 120.05
4 4.6266 0.1632 0.0461 0.2251 0.6548 0.1237 111 120.05
5 4.6266 0.1632 0.0461 0.2251 0.6548 0.1237 111 120.05
6 0 -4.4683 0 0 3.8987 0 120.05 118.9
7 0 -4.4683 0 0 3.8987 0 120.05 118.9
8 1.9767 1.0239 0 1.9767 1.0239 0 118.9 118.9
9 0 2.5014 0 0 2.7147 0 118.9 117.94
10 0 -0.1242 0 0 3.4601 0 120.05 117.94
11 0 0 0 0 0 0 120.05 121.458
12 0 0 0 0 0 0 120.05 121.458
13 0 9.0901 0 0 -6.0882 0 118.9 121.458
14 0 1.2616 0 0 0.7744 0 121.458 111.872

Improper Coeffs # class2

1 7.8153 0
2 7.8153 0
3 4.8912 0
4 10.7855 0
5 0 0
6 0 0
7 0 0
8 0 0
9 0 0
10 0 0
11 0 0

AngleAngle Coeffs

1 0 0 0 120.05 118.9 120.05
2 0 0 0 120.05 118.9 120.05
3 0 0 0 118.9 117.94 117.94
4 0 0 0 118.9 121.458 121.458
5 0 0 0 111.872 107.513 111.872
6 0.2738 -0.4825 0.2738 110.77 110.77 107.66
7 2.0403 -1.8202 1.0827 108.4 110.77 111
8 0.2738 -0.4825 0.2738 110.77 110.77 107.66
9 2.3794 3.0118 2.3794 111 111 107.66
10 2.3794 3.0118 2.3794 111 111 107.66
11 -0.3157 -0.3157 -0.3157 107.66 107.66 107.66

Atoms # full

1 1 3 0 -1.4491145421654248 -0.5056893655136054 -1.0050208962294986 0 0 0
2 1 3 0.0827 -0.7499576154402616 -1.535107770949626 -0.37618570329956746 0 0 0
3 1 3 0 0.20966528468711676 -1.2422523271275692 0.6766479418550171 0 0 0
4 1 3 -0.1268 0.4319251206762651 0.07987608230146925 0.9402858098947195 0 0 0
5 1 3 0 -0.12949418775591148 1.18271140746418 0.3167756087975091 0 0 0
6 1 3 0.0827 -1.1588879261016398 0.8651087632831747 -0.6554263684601649 0 0 0
7 1 1 -0.106 0.1300740763896222 2.588883208828438 0.8922578106604355 0 0 0
8 1 2 -0.159 1.598532897428167 2.9106745396002864 0.5515472160967989 0 0 0
9 1 1 -0.106 0.7714771712282911 -2.346005889445036 1.5915381154097643 0 0 0
10 1 2 -0.159 2.2693610146915004 -2.6819561787207133 1.262274083432203 0 0 0
11 1 2 -0.159 -2.4757438428869456 -0.7312689553258069 -2.0638875626637163 0 0 0
12 1 6 -0.5800999999999999 -1.782330656711569 1.9752850287615136 -1.2784660313646399 0 0 0
13 1 6 -0.5800999999999999 -0.8889415118415407 -2.914056142865029 -0.6945328828218318 0 0 0
14 1 4 0.1268 1.1405249853215587 0.3043361319846447 1.7535011366451743 0 0 0
15 1 4 0.053 -0.5327549025120502 3.3587783916782907 0.4407409337524273 0 0 0
16 1 4 0.053 -0.19326973909841572 2.6267143937364175 1.9358251811812694 0 0 0
17 1 4 0.053 1.9317823626946895 -5.2986263218737175 0.8431874815113121 0 1 0
18 1 4 0.053 2.3873000608132395 2.379930098997935 1.1246012479390135 0 0 0
19 1 4 0.053 1.789600345449129 2.740328478139439 -0.49136187011973265 0 0 0
20 1 4 0.053 0.7147678365288073 -2.026987082130974 2.5785547816667256 0 0 0
21 1 4 0.053 0.04148981188666845 -3.215944414785906 1.5904437893472005 0 0 0
22 1 4 0.053 2.600559362853537 -3.5041594137590177 1.8600059363402863 0 0 0
23 1 4 0.053 2.3962088903100076 -2.8830735325481602 0.26362010281758064 0 0 0
24 1 4 0.053 -2.9130678463190547 -1.8665011249233872 1.5456335986814258 1 0 0
25 1 4 0.053 -3.145137840404492 -1.5244552443794035 -1.7937871751466878 0 0 0
26 1 4 0.053 -3.0622344824927223 0.22279858524722318 -2.3852420249618254 0 0 0
27 1 4 0.053 -1.901782993701251 -1.0023268738302615 -2.994426193467085 0 0 0
28 1 5 0.2487 -2.6973341890377305 1.6245826191074713 -1.5750705526777324 0 0 0
29 1 5 0.2487 -1.9675353853391346 2.7166806854348877 -0.6147292975252401 0 0 0
30 1 5 0.2487 -0.07597836592674323 -3.3412592770261824 -0.4316642733210334 0 0 0
31 1 5 0.2487 -1.0088775677458366 -3.144125196288094 -1.6358756977251763 0 0 0

Velocities

1 -0.001750142194268658 -0.0035312728528654968 -0.003996992449611594
2 -0.00322391014695266 -0.004180484079291229 0.00030632901721255174
3 0.000881128908314037 -0.015691398553066577 -0.002606699633940864
4 -0.00020038729425185265 0.005364686530697218 -0.0008427139401922918
5 -0.0041273503243155615 -0.00512395823480713 0.0020725561980105456
6 0.007071953314352312 -0.007773502440386572 -0.003570700221269906
7 0.011519293219217307 0.009485935301709682 -0.006238673576711811
8 0.002723787925731083 0.00471025320134098 -0.004957399548427334
9 0.00031961049433153747 -0.004930882009523901 0.0027990176133420907
10 -0.011454942647600535 0.004067184656799265 0.010029349432630877
11 0.00018763499490752762 0.0020173050631438314 0.003834290395578616
12 -0.0015458109472820114 0.0024094128781499825 0.008546296898290017
13 -0.001806828985238154 -0.00028515045022251185 -0.0009676626114827738
14 -0.012421708579976414 0.014271127269967196 5.370603072042789e-06
15 0.017365665294232592 0.008703872981083946 -0.01196203332526628
16 0.005924548341408948 -0.0010478656907483787 0.0019254749990551194
17 0.022203600521228287 -0.0007820535824999486 -0.020446010762837318
18 -0.0025353365740066543 0.016106841978137523 0.035931007026954793
19 -0.004802243525807901 -0.014836310182170522 -0.015055735056447006
20 0.004808527266412494 0.019209527900116194 -0.0012741517334645006
21 0.0016184134501003168 -7.653484588685603e-05 -0.013776399050998693
22 -0.01713644086769296 0.018452965847993184 -0.0031052002311266276
23 -0.013700988838957958 -0.0032950065390816964 0.014710087063306407
24 0.004078472716172415 0.015049703637413578 -0.009653186745827262
25 0.013667224281372077 0.001689969119276179 -0.01624560567195643
26 0.011551783763677211 -0.007966318012889488 -0.019521298897427358
27 -0.013650023469156418 0.0037421880351330714 0.008405148285444811
28 -0.020464873807603645 -0.0026437279356527517 -0.01417514444046908
29 -0.004337333874846158 0.014857440105873643 0.016829998849880366
30 0.019393201627342455 0.027410223591508277 -0.010276350133305035
31 0.011828685931155523 0.047362454425879684 -0.009834500650624542

Bonds

1 6 1 2
2 6 1 6
3 6 2 3
4 8 2 13
5 6 3 4
6 6 4 5
7 7 4 14
8 6 5 6
9 8 6 12
10 2 7 5
11 1 7 8
12 3 7 15
13 3 7 16
14 5 8 17
15 5 8 18
16 5 8 19
17 2 9 3
18 1 9 10
19 3 9 20
20 3 9 21
21 5 10 22
22 5 10 23
23 5 10 24
24 4 11 1
25 5 11 25
26 5 11 26
27 5 11 27
28 9 28 12
29 9 29 12
30 9 30 13
31 9 31 13

Angles

1 8 2 1 6
2 5 11 1 6
3 5 11 1 2
4 10 3 2 13
5 10 1 2 13
6 8 1 2 3
7 2 9 3 2
8 8 2 3 4
9 2 9 3 4
10 9 5 4 14
11 8 3 4 5
12 9 3 4 14
13 8 4 5 6
14 2 7 5 6
15 2 7 5 4
16 10 1 6 12
17 8 1 6 5
18 10 5 6 12
19 6 5 7 15
20 4 8 7 16
21 3 8 7 5
22 4 8 7 15
23 12 15 7 16
24 6 5 7 16
25 13 17 8 19
26 1 7 8 19
27 13 17 8 18
28 1 7 8 18
29 13 18 8 19
30 1 7 8 17
31 3 10 9 3
32 4 10 9 20
33 6 3 9 21
34 6 3 9 20
35 12 20 9 21
36 4 10 9 21
37 1 9 10 22
38 1 9 10 24
39 13 22 10 24
40 13 23 10 24
41 1 9 10 23
42 13 22 10 23
43 13 25 11 26
44 7 1 11 26
45 13 26 11 27
46 7 1 11 25
47 7 1 11 27
48 13 25 11 27
49 11 6 12 29
50 11 6 12 28
51 14 28 12 29
52 14 30 13 31
53 11 2 13 31
54 11 2 13 30

Dihedrals

1 11 11 1 6 12
2 13 2 1 6 12
3 13 6 1 2 13
4 11 11 1 2 13
5 8 2 1 6 5
6 6 11 1 2 3
7 6 11 1 6 5
8 8 3 2 1 6
9 14 1 2 13 30
10 8 1 2 3 4
11 14 3 2 13 31
12 14 3 2 13 30
13 14 1 2 13 31
14 7 9 3 2 1
15 13 4 3 2 13
16 10 9 3 4 14
17 8 2 3 4 5
18 9 2 3 4 14
19 12 9 3 2 13
20 7 9 3 4 5
21 8 3 4 5 6
22 7 7 5 4 3
23 12 7 5 6 12
24 13 4 5 6 12
25 10 7 5 4 14
26 9 6 5 4 14
27 7 7 5 6 1
28 14 1 6 12 28
29 8 1 6 5 4
30 14 5 6 12 28
31 14 1 6 12 29
32 14 5 6 12 29
33 4 15 7 5 4
34 4 15 7 5 6
35 3 8 7 5 4
36 3 8 7 5 6
37 4 16 7 5 4
38 4 16 7 5 6
39 2 16 7 8 18
40 2 15 7 8 19
41 1 5 7 8 17
42 2 16 7 8 17
43 2 15 7 8 18
44 1 5 7 8 19
45 2 16 7 8 19
46 2 15 7 8 17
47 1 5 7 8 18
48 3 10 9 3 4
49 4 20 9 3 2
50 4 21 9 3 4
51 3 10 9 3 2
52 4 20 9 3 4
53 4 21 9 3 2
54 2 21 9 10 23
55 1 3 9 10 22
56 2 20 9 10 22
57 2 21 9 10 22
58 1 3 9 10 24
59 2 20 9 10 24
60 2 21 9 10 24
61 1 3 9 10 23
62 2 20 9 10 23
63 5 26 11 1 6
64 5 27 11 1 2
65 5 25 11 1 6
66 5 26 11 1 2
67 5 27 11 1 6
68 5 25 11 1 2

Impropers

1 2 11 1 2 6
2 4 1 2 3 13
3 1 9 3 2 4
4 3 3 4 5 14
5 1 7 5 4 6
6 4 1 6 5 12
7 8 8 7 15 16
8 9 5 7 15 16
9 7 8 7 5 16
10 7 8 7 5 15
11 6 7 8 17 18
12 6 7 8 18 19
13 6 7 8 17 19
14 11 17 8 18 19
15 9 3 9 20 21
16 7 10 9 3 21
17 8 10 9 20 21
18 7 10 9 3 20
19 6 9 10 22 24
20 11 22 10 23 24
21 6 9 10 22 23
22 6 9 10 23 24
23 10 1 11 25 27
24 11 25 11 26 27
25 10 1 11 25 26
26 10 1 11 26 27
27 5 6 12 28 29
28 5 2 13 30 31
