LAMMPS data file via write_data, version 12 Jun 2025, timestep = 5000, units = real

31 atoms
6 atom types
31 bonds
9 bond types
54 angles
14 angle types
68 dihedrals
14 dihedral types
28 impropers
11 improper types

-4.2413789237722295 2.871798277767682 xlo xhi
-5.420914439304667 3.3966241172997402 ylo yhi
-2.3006639515300034 2.3010574995339343 zlo zhi
-0.18476419344472556 0.47623064236700996 0 xy xz yz

Masses

1 12.01115
2 12.01115
3 12.01115
4 1.00797
5 1.00797
6 14.0067

Pair Coeffs # lj/class2/coul/long

1 0.054 4.01
2 0.054 3.9
3 0.064 4.01
4 0.02 2.995
5 0.013 1.098
6 0.065 4.07

Bond Coeffs # class2

1 1.53 299.67 -501.77 679.81
2 1.501 321.902 -521.821 572.163
3 1.101 345 -691.89 844.6
4 1.501 321.902 -521.821 572.163
5 1.101 345 -691.89 844.6
6 1.417 470.836 -627.618 1327.63
7 1.0982 372.825 -803.453 894.317
8 1.3912 447.044 -784.535 886.167
9 1.0012 465.861 -1066.24 1496.56

Angle Coeffs # class2

1 110.77 41.453 -10.604 5.129
2 120.05 44.7148 -22.7352 0
3 108.4 43.9594 -8.3924 -9.3379
4 110.77 41.453 -10.604 5.129
5 120.05 44.7148 -22.7352 0
6 111 44.3234 -9.4454 0
7 111 44.3234 -9.4454 0
8 118.9 61.0226 -34.9931 0
9 117.94 35.1558 -12.4682 0
10 121.458 61.0647 -21.6172 0
11 111.873 40.8369 -15.6673 0
12 107.66 39.641 -12.921 -2.4318
13 107.66 39.641 -12.921 -2.4318
14 107.513 42.5182 -21.7566 -4.3372

BondBond Coeffs

1 3.3872 1.53 1.101
2 12.0676 1.501 1.417
3 0 1.53 1.501
4 3.3872 1.53 1.101
5 12.0676 1.501 1.417
6 2.9168 1.501 1.101
7 2.9168 1.501 1.101
8 68.2856 1.417 1.417
9 1.0795 1.417 1.0982
10 46.9513 1.417 1.3912
11 4.5393 1.3912 1.0012
12 5.3316 1.101 1.101
13 5.3316 1.101 1.101
14 -9.9447 1.0012 1.0012

BondAngle Coeffs

1 20.754 11.421 1.53 1.101
2 47.0579 31.0771 1.501 1.417
3 0 0 1.53 1.501
4 20.754 11.421 1.53 1.101
5 47.0579 31.0771 1.501 1.417
6 26.4608 11.7717 1.501 1.101
7 26.4608 11.7717 1.501 1.101
8 28.8708 28.8708 1.417 1.417
9 20.0033 24.2183 1.417 1.0982
10 39.404 73.6548 1.417 1.3912
11 38.5704 16.5524 1.3912 1.0012
12 18.103 18.103 1.101 1.101
13 18.103 18.103 1.101 1.101
14 17.1597 17.1597 1.0012 1.0012

Dihedral Coeffs # class2

1 -0.0228 0 0.028 0 -0.1863 0
2 -0.1432 0 0.0617 0 -0.1083 0
3 -0.2802 0 -0.0678 0 -0.0122 0
4 -0.2801 0 -0.0678 0 -0.0122 0
5 -0.2801 0 -0.0678 0 -0.0122 0
6 0 0 4.4072 0 0 0
7 0 0 4.4072 0 0 0
8 8.3667 0 1.1932 0 0 0
9 0 0 3.9661 0 0 0
10 0 0 1.559 0 0 0
11 0 0 3 0 0 0
12 0 0 3 0 0 0
13 0 0 5.3826 0 0 0
14 0 0 1.219 0 0 0

AngleAngleTorsion Coeffs

1 0 108.4 110.77
2 -12.564 110.77 110.77
3 0 108.4 120.05
4 -5.8888 111 120.05
5 -5.8888 111 120.05
6 -14.4097 120.05 118.9
7 -14.4097 120.05 118.9
8 0 118.9 118.9
9 -4.8141 118.9 117.94
10 4.4444 120.05 117.94
11 0 120.05 121.458
12 0 120.05 121.458
13 0 118.9 121.458
14 -7.1755 121.458 111.872

EndBondTorsion Coeffs

1 0 0 0 0 0 0 1.501 1.101
2 0.213 0.312 0.0777 0.213 0.312 0.0777 1.101 1.101
3 0 0 0 0 0 0 1.53 1.417
4 1.3997 0.7756 0 -0.5835 1.122 0.3978 1.101 1.417
5 1.3997 0.7756 0 -0.5835 1.122 0.3978 1.101 1.417
6 0 0.2421 0 0 -0.6918 0 1.501 1.417
7 0 0.2421 0 0 -0.6918 0 1.501 1.417
8 -0.1185 6.3204 0 -0.1185 6.3204 0 1.417 1.417
9 0 -6.8958 0 0 -0.4669 0 1.417 1.0982
10 0 -1.797 0 0 -0.4879 0 1.501 1.0982
11 0 0 0 0 0 0 1.501 1.3912
12 0 0 0 0 0 0 1.501 1.3912
13 0 -6.5404 0 0 -7.3477 0 1.417 1.3912
14 0 -3.7281 0 0 0.2849 0 1.417 1.0012

MiddleBondTorsion Coeffs

1 0 0 0 1.53
2 -14.261 -0.5322 -0.4864 1.53
3 0 0 0 1.501
4 -5.5679 1.4083 0.301 1.501
5 -5.5679 1.4083 0.301 1.501
6 0 9.1792 0 1.417
7 0 9.1792 0 1.417
8 27.5989 -2.312 0 1.417
9 0 -1.1521 0 1.417
10 0 3.9421 0 1.417
11 0 0 0 1.417
12 0 0 0 1.417
13 0 -0.5693 0 1.417
14 0 3.2085 0 1.3912

BondBond13 Coeffs

1 0 1.501 1.101
2 0 1.101 1.101
3 0 1.53 1.417
4 -3.4826 1.101 1.417
5 -3.4826 1.101 1.417
6 2.5085 1.501 1.417
7 2.5085 1.501 1.417
8 53 1.417 1.417
9 -6.2741 1.417 1.0982
10 0.8743 1.501 1.0982
11 0 1.501 1.3912
12 0 1.501 1.3912
13 -9.7999 1.417 1.3912
14 4.2366 1.417 1.0012

AngleTorsion Coeffs

1 0 0 0 0 0 0 108.4 110.77
2 -0.8085 0.5569 -0.2466 -0.8085 0.5569 -0.2466 110.77 110.77
3 0 0 0 0 0 0 108.4 120.05
4 4.6266 0.1632 0.0461 0.2251 0.6548 0.1237 111 120.05
5 4.6266 0.1632 0.0461 0.2251 0.6548 0.1237 111 120.05
6 0 -4.4683 0 0 3.8987 0 120.05 118.9
7 0 -4.4683 0 0 3.8987 0 120.05 118.9
8 1.9767 1.0239 0 1.9767 1.0239 0 118.9 118.9
9 0 2.5014 0 0 2.7147 0 118.9 117.94
10 0 -0.1242 0 0 3.4601 0 120.05 117.94
11 0 0 0 0 0 0 120.05 121.458
12 0 0 0 0 0 0 120.05 121.458
13 0 9.0901 0 0 -6.0882 0 118.9 121.458
14 0 1.2616 0 0 0.7744 0 121.458 111.872

Improper Coeffs # class2

1 7.8153 0
2 7.8153 0
3 4.8912 0
4 10.7855 0
5 0 0
6 0 0
7 0 0
8 0 0
9 0 0
10 0 0
11 0 0

AngleAngle Coeffs

1 0 0 0 120.05 118.9 120.05
2 0 0 0 120.05 118.9 120.05
3 0 0 0 118.9 117.94 117.94
4 0 0 0 118.9 121.458 121.458
5 0 0 0 111.872 107.513 111.872
6 0.2738 -0.4825 0.2738 110.77 110.77 107.66
7 2.0403 -1.8202 1.0827 108.4 110.77 111
8 0.2738 -0.4825 0.2738 110.77 110.77 107.66
9 2.3794 3.0118 2.3794 111 111 107.66
10 2.3794 3.0118 2.3794 111 111 107.66
11 -0.3157 -0.3157 -0.3157 107.66 107.66 107.66

Atoms # full

1 1 3 0 -1.6352768962010953 -0.16018693236839798 -0.8464984248944942 0 0 0
2 1 3 0.0827 -1.1253061362527146 -1.4020463228223585 -0.42807952571266994 0 0 0
3 1 3 0 0.024697971025713805 -1.5466873472036555 0.38423104542768405 0 0 0
4 1 3 -0.1268 0.631089322809073 -0.3277986092104488 0.676936233410018 0 0 0
5 1 3 0 0.15008032626089918 0.9484467514167001 0.4300726279945555 0 0 0
6 1 3 0.0827 -0.9978238133925541 1.0421530696816408 -0.37496381435375103 0 0 0
7 1 1 -0.106 0.9401194930949579 2.1836105683221856 1.0310777370223607 0 0 0
8 1 2 -0.159 2.324194600858428 2.3573613847702077 0.3197807551211542 0 0 0
9 1 1 -0.106 0.4764349068995859 -2.8944961187958356 0.8237302466475174 0 0 0
10 1 2 -0.159 1.974027686749598 -2.8374138782148806 1.36867739275805 0 0 0
11 1 2 -0.159 -2.914888985065091 -0.09949504649110263 -1.7113436953739252 0 0 0
12 1 6 -0.5800999999999999 -1.4795480532439411 2.3492548194050498 -0.6942510182319608 0 0 0
13 1 6 -0.5800999999999999 -1.892349243518098 -2.539388763840881 -0.8400494311330444 0 0 0
14 1 4 0.1268 1.502473863364588 -0.3437534696691307 1.2986808664559035 0 0 0
15 1 4 0.053 0.376321750862985 3.1291730188370757 0.917884135391347 0 0 0
16 1 4 0.053 1.0701483457396934 2.067432425946449 2.1483201358697306 0 0 0
17 1 4 0.053 2.8548474821883945 3.2465463965934003 0.6839019140325191 0 0 0
18 1 4 0.053 2.97859942058977 1.4951327991328753 0.45353991082608225 0 0 0
19 1 4 0.053 2.139921670924096 2.474000437992852 -0.7818808618185651 0 0 0
20 1 4 0.053 -0.2358339717916369 -3.342671667156217 1.6126228118562973 0 0 0
21 1 4 0.053 0.5236596951360131 -3.566045676223073 -0.028413622084082935 0 0 0
22 1 4 0.053 2.268199584332585 -3.8462493413750263 1.7197040668207944 0 0 0
23 1 4 0.053 2.7342979225066992 -2.5190496811443737 0.6219854511592509 0 0 0
24 1 4 0.053 1.9944724101207747 -2.199916128703514 2.2578624363968274 0 0 0
25 1 4 0.053 -3.8145571138651135 -0.6159490783914201 -1.3046365653564798 0 0 0
26 1 4 0.053 -3.1879519557552847 0.8854734925848726 -1.9769294184704351 0 0 0
27 1 4 0.053 -2.2207761471836998 -0.5909806540977014 1.8767852547453314 0 0 -1
28 1 5 0.2487 -2.462506518090807 2.3806698854546946 -0.924936853475036 0 0 0
29 1 5 0.2487 -1.1470825926203911 3.0978068768097042 -0.07292498305881123 0 0 0
30 1 5 0.2487 -1.3542942498933366 -3.3905253513549316 -0.7170353442244066 0 0 0
31 1 5 0.2487 -2.101910999840564 -2.4163700507466945 -1.8052408934234911 0 0 0

Velocities

1 -0.00417679178924479 -0.0020007992987968754 -0.0005020087584252931
2 -0.0004934283379099877 -0.003370503144043034 -0.002320640419848712
3 -0.00013470393780597878 -0.0040654350112235066 -0.004471060446487623
4 -0.0025309838745965676 8.767160590382406e-05 0.007395531386503909
5 0.00523569471850653 0.0015033520108280705 0.008907000603180506
6 -0.009206891028863969 0.004843216717072969 -0.000997944619412954
7 0.006458648453692496 0.0029723918426014257 0.000418967180424843
8 0.0034476768251507817 0.0007754635354450597 -0.002953688186410745
9 0.003479889840213537 0.002991832844580537 -0.0044432187148642655
10 6.555726231658085e-05 0.00278501796820792 0.0032129007555365486
11 0.007115910116502165 -0.0005460021360215187 0.00016659645581166456
12 0.00016462872763535824 -0.0015693048318496025 -0.0013592290573428685
13 -0.006650508273184477 -0.0018208749531523757 -0.0051176899557408215
14 -0.002007570576109616 -0.03114564907576475 0.0022268252552475835
15 -0.0012849693028880653 -0.011815782685129245 -0.001639781735108399
16 0.024512246154844555 0.004341637540691409 -0.0010845821620285216
17 -0.004115805352006569 4.9904376009374775e-05 0.009234134667009132
18 -0.006226736431992131 -0.01658413080218729 0.0018389512311633468
19 -0.02909954971188064 0.008491516504193044 0.004499516346381787
20 0.04655815905344511 0.0008194762026700977 0.013058141169172734
21 -0.01423618574405702 -0.030004229262827167 0.009280581472122787
22 0.01613058839770923 -0.005340832894217584 0.0209195620496568
23 -0.0023534757738313634 0.03955162128047195 -0.006890440897066893
24 -0.005044481667191804 -0.00032842047571861094 0.0031730284394348414
25 0.01024296102253078 0.006729443613799132 0.0020975547704258283
26 -0.02243667967000891 -0.0109622272636962 -0.00755398476454067
27 0.0008381441436316853 0.0199530926022703 0.003529873499945451
28 -0.018182087789808222 -0.00313898292724749 -0.03368208316354387
29 -0.004187653740765583 -0.008295962620568134 0.015925965654557717
30 -0.024747662848883273 0.013478870189633835 -0.013287267050322404
31 0.015417513716496096 9.687609366867199e-05 0.01577757938694774

Bonds

1 6 1 2
2 6 1 6
3 6 2 3
4 8 2 13
5 6 3 4
6 6 4 5
7 7 4 14
8 6 5 6
9 8 6 12
10 2 7 5
11 1 7 8
12 3 7 15
13 3 7 16
14 5 8 17
15 5 8 18
16 5 8 19
17 2 9 3
18 1 9 10
19 3 9 20
20 3 9 21
21 5 10 22
22 5 10 23
23 5 10 24
24 4 11 1
25 5 11 25
26 5 11 26
27 5 11 27
28 9 28 12
29 9 29 12
30 9 30 13
31 9 31 13

Angles

1 8 2 1 6
2 5 11 1 6
3 5 11 1 2
4 10 3 2 13
5 10 1 2 13
6 8 1 2 3
7 2 9 3 2
8 8 2 3 4
9 2 9 3 4
10 9 5 4 14
11 8 3 4 5
12 9 3 4 14
13 8 4 5 6
14 2 7 5 6
15 2 7 5 4
16 10 1 6 12
17 8 1 6 5
18 10 5 6 12
19 6 5 7 15
20 4 8 7 16
21 3 8 7 5
22 4 8 7 15
23 12 15 7 16
24 6 5 7 16
25 13 17 8 19
26 1 7 8 19
27 13 17 8 18
28 1 7 8 18
29 13 18 8 19
30 1 7 8 17
31 3 10 9 3
32 4 10 9 20
33 6 3 9 21
34 6 3 9 20
35 12 20 9 21
36 4 10 9 21
37 1 9 10 22
38 1 9 10 24
39 13 22 10 24
40 13 23 10 24
41 1 9 10 23
42 13 22 10 23
43 13 25 11 26
44 7 1 11 26
45 13 26 11 27
46 7 1 11 25
47 7 1 11 27
48 13 25 11 27
49 11 6 12 29
50 11 6 12 28
51 14 28 12 29
52 14 30 13 31
53 11 2 13 31
54 11 2 13 30

Dihedrals

1 11 11 1 6 12
2 13 2 1 6 12
3 13 6 1 2 13
4 11 11 1 2 13
5 8 2 1 6 5
6 6 11 1 2 3
7 6 11 1 6 5
8 8 3 2 1 6
9 14 1 2 13 30
10 8 1 2 3 4
11 14 3 2 13 31
12 14 3 2 13 30
13 14 1 2 13 31
14 7 9 3 2 1
15 13 4 3 2 13
16 10 9 3 4 14
17 8 2 3 4 5
18 9 2 3 4 14
19 12 9 3 2 13
20 7 9 3 4 5
21 8 3 4 5 6
22 7 7 5 4 3
23 12 7 5 6 12
24 13 4 5 6 12
25 10 7 5 4 14
26 9 6 5 4 14
27 7 7 5 6 1
28 14 1 6 12 28
29 8 1 6 5 4
30 14 5 6 12 28
31 14 1 6 12 29
32 14 5 6 12 29
33 4 15 7 5 4
34 4 15 7 5 6
35 3 8 7 5 4
36 3 8 7 5 6
37 4 16 7 5 4
38 4 16 7 5 6
39 2 16 7 8 18
40 2 15 7 8 19
41 1 5 7 8 17
42 2 16 7 8 17
43 2 15 7 8 18
44 1 5 7 8 19
45 2 16 7 8 19
46 2 15 7 8 17
47 1 5 7 8 18
48 3 10 9 3 4
49 4 20 9 3 2
50 4 21 9 3 4
51 3 10 9 3 2
52 4 20 9 3 4
53 4 21 9 3 2
54 2 21 9 10 23
55 1 3 9 10 22
56 2 20 9 10 22
57 2 21 9 10 22
58 1 3 9 10 24
59 2 20 9 10 24
60 2 21 9 10 24
61 1 3 9 10 23
62 2 20 9 10 23
63 5 26 11 1 6
64 5 27 11 1 2
65 5 25 11 1 6
66 5 26 11 1 2
67 5 27 11 1 6
68 5 25 11 1 2

Impropers

1 2 11 1 2 6
2 4 1 2 3 13
3 1 9 3 2 4
4 3 3 4 5 14
5 1 7 5 4 6
6 4 1 6 5 12
7 8 8 7 15 16
8 9 5 7 15 16
9 7 8 7 5 16
10 7 8 7 5 15
11 6 7 8 17 18
12 6 7 8 18 19
13 6 7 8 17 19
14 11 17 8 18 19
15 9 3 9 20 21
16 7 10 9 3 21
17 8 10 9 20 21
18 7 10 9 3 20
19 6 9 10 22 24
20 11 22 10 23 24
21 6 9 10 22 23
22 6 9 10 23 24
23 10 1 11 25 27
24 11 25 11 26 27
25 10 1 11 25 26
26 10 1 11 26 27
27 5 6 12 28 29
28 5 2 13 30 31
