ITEM: TIMESTEP
0
ITEM: NUMBER OF ATOMS
31
ITEM: BOX BOUNDS xy xz yz pp pp pp
-6.4604903230000001e+00 5.3409096770000000e+00 -2.5000000000000000e-01
-6.9775451610000001e+00 4.9532548390000004e+00 5.0000000000000000e-01
-2.4155032259999998e+00 2.4158967740000001e+00 0.0000000000000000e+00
ITEM: ATOMS id type x y z fx fy fz ix iy iz vx vy vz xu yu zu mass
1 3 -1.59619 0.232055 -3.226e-06 -74.0127 0.955574 -0.0366655 0 0 0 0 0 0 -1.59619 0.232055 -3.226e-06 12.0112
2 3 -0.97719 -0.971745 -3.226e-06 30.6346 43.7834 -0.0236904 0 0 0 0 0 0 -0.97719 -0.971745 -3.226e-06 12.0112
3 3 0.37111 -1.05625 -3.226e-06 43.6328 -49.7263 0.005223 0 0 0 0 0 0 0.37111 -1.05625 -3.226e-06 12.0112
4 3 1.06251 0.0998548 -0.000103226 56.7895 -0.841297 -0.0527084 0 0 0 0 0 0 1.06251 0.0998548 -0.000103226 12.0112
5 3 0.49431 1.31535 -0.000103226 65.4704 34.5403 0.0293164 0 0 0 0 0 0 0.49431 1.31535 -0.000103226 12.0112
6 3 -0.85109 1.35805 -3.226e-06 25.5255 -47.8394 -0.0392244 0 0 0 0 0 0 -0.85109 1.35805 -3.226e-06 12.0112
7 1 1.32611 2.59005 -0.000103226 -0.621401 17.2537 -0.0569449 0 0 0 0 0 0 1.32611 2.59005 -0.000103226 12.0112
8 2 2.85521 2.44975 -3.226e-06 11.4541 -1.82105 -0.0224123 0 0 0 0 0 0 2.85521 2.44975 -3.226e-06 12.0112
9 1 1.24701 -2.30895 -3.226e-06 23.7909 -1.58576 -0.0188613 0 0 0 0 0 0 1.24701 -2.30895 -3.226e-06 12.0112
10 2 0.69051 -3.73655 0.000196774 -8.96458 -12.3787 -0.0580659 0 0 0 0 0 0 0.69051 -3.73655 0.000196774 12.0112
11 2 -3.11199 0.385055 -3.226e-06 -16.0129 0.88629 0.0856483 0 0 0 0 0 0 -3.11199 0.385055 -3.226e-06 12.0112
12 6 -1.42069 2.49345 -0.000103226 -90.8688 179.101 0.124068 0 0 0 0 0 0 -1.42069 2.49345 -0.000103226 14.0067
13 6 -1.69359 -2.01825 9.6774e-05 -112.058 -169.488 0.172209 0 0 0 0 0 0 -1.69359 -2.01825 9.6774e-05 14.0067
14 4 2.16091 0.0311548 -0.000103226 -0.923024 1.00489 0.101913 0 0 0 0 0 0 2.16091 0.0311548 -0.000103226 1.00797
15 4 1.04731 3.18475 -0.904103 2.05126 -1.45494 8.40003 0 0 0 0 0 0 1.04731 3.18475 -0.904103 1.00797
16 4 1.04721 3.18495 0.903697 2.05004 -1.47806 -8.34718 0 0 0 0 0 0 1.04721 3.18495 0.903697 1.00797
17 4 3.34091 3.45325 -3.226e-06 -3.58572 -7.31166 0.0190657 0 0 0 0 0 0 3.34091 3.45325 -3.226e-06 1.00797
18 4 3.22101 1.91695 0.907497 -3.081 2.77206 -7.37141 0 0 0 0 0 0 3.22101 1.91695 0.907497 1.00797
19 4 3.22111 1.91685 -0.907403 -3.05275 2.78795 7.45348 0 0 0 0 0 0 3.22111 1.91685 -0.907403 1.00797
20 4 1.91091 -2.23475 -0.897603 -2.60381 -0.50419 8.0611 0 0 0 0 0 0 1.91091 -2.23475 -0.897603 1.00797
21 4 1.91101 -2.23465 0.897497 -2.6011 -0.477661 -7.95741 0 0 0 0 0 0 1.91101 -2.23465 0.897497 1.00797
22 4 1.52391 -4.47755 0.000196774 -5.04935 5.84117 0.0207631 0 0 0 0 0 0 1.52391 -4.47755 0.000196774 1.00797
23 4 0.0935097 -3.95085 0.915897 1.7003 2.80638 -8.66244 0 0 0 0 0 0 0.0935097 -3.95085 0.915897 1.00797
24 4 0.0935097 -3.95105 -0.915503 1.68564 2.80162 8.68107 0 0 0 0 0 0 0.0935097 -3.95105 -0.915503 1.00797
25 4 -3.71049 -0.546245 -0.000203226 7.87616 2.68971 -0.0475815 0 0 0 0 0 0 -3.71049 -0.546245 -0.000203226 1.00797
26 4 -3.44209 0.941855 0.906897 1.14785 -2.11505 -7.1702 0 0 0 0 0 0 -3.44209 0.941855 0.906897 1.00797
27 4 -3.44209 0.942155 -0.906703 1.17468 -2.12043 7.0402 0 0 0 0 0 0 -3.44209 0.942155 -0.906703 1.00797
28 5 -2.46369 2.59145 -3.226e-06 42.7056 -2.24734 -0.13935 0 0 0 0 0 0 -2.46369 2.59145 -3.226e-06 1.00797
29 5 -0.86879 3.38415 -0.000103226 -24.5774 -35.2558 -0.00052702 0 0 0 0 0 0 -0.86879 3.38415 -0.000103226 1.00797
30 5 -1.30209 -2.98225 9.6774e-05 -10.6016 36.402 -0.0345517 0 0 0 0 0 0 -1.30209 -2.98225 9.6774e-05 1.00797
31 5 -2.73809 -2.00215 9.6774e-05 40.9244 3.01989 -0.15486 0 0 0 0 0 0 -2.73809 -2.00215 9.6774e-05 1.00797
ITEM: TIMESTEP
1000
ITEM: NUMBER OF ATOMS
31
ITEM: BOX BOUNDS xy xz yz pp pp pp
-5.8441643483100592e+00 4.6499308243243744e+00 -2.2502451226023706e-01
-6.3815900627496767e+00 4.3572997407480507e+00 4.0037163427622152e-01
-1.9341587398418774e+00 1.9345522878423875e+00 0.0000000000000000e+00
ITEM: ATOMS id type x y z fx fy fz ix iy iz vx vy vz xu yu zu mass
1 3 -1.73003 0.243523 -0.244772 22.3531 -9.93567 24.7602 0 0 0 0.0176268 -0.00240293 -3.62255e-05 -1.73003 0.243523 -0.244772 12.0112
2 3 -1.11607 -1.00678 0.0956922 -50.6016 -44.8118 -16.9313 0 0 0 -0.00985545 -0.000496926 0.0033366 -1.11607 -1.00678 0.0956922 12.0112
3 3 0.283215 -1.236 0.244087 -18.9949 36.9646 -15.9604 0 0 0 -0.00988559 0.00414232 -0.00763907 0.283215 -1.236 0.244087 12.0112
4 3 1.08883 -0.0745063 0.132443 -54.4989 -6.96699 -0.924362 0 0 0 0.00273123 0.000833267 0.0020171 1.08883 -0.0745063 0.132443 12.0112
5 3 0.548966 1.18562 -0.0711966 16.6405 -30.5648 -0.668305 0 0 0 -0.00815945 -0.00773857 -0.00248713 0.548966 1.18562 -0.0711966 12.0112
6 3 -0.82267 1.31679 -0.226555 -37.6085 46.6718 -8.62952 0 0 0 0.00102173 0.0043512 0.00490435 -0.82267 1.31679 -0.226555 12.0112
7 1 1.50761 2.34782 -0.0429398 -30.0987 13.0409 2.31837 0 0 0 0.00361662 0.00125978 -0.00178514 1.50761 2.34782 -0.0429398 12.0112
8 2 2.90925 2.09795 -0.536184 23.3203 -10.7249 -15.6664 0 0 0 0.002337 -0.00371938 -0.00497994 2.90925 2.09795 -0.536184 12.0112
9 1 1.05001 -2.53407 0.485953 25.1337 15.0451 -2.34825 0 0 0 0.0033952 0.00124971 0.00079571 1.05001 -2.53407 0.485953 12.0112
10 2 0.354866 -3.89013 0.799849 11.6205 36.7911 -19.9081 0 0 0 0.00386596 0.00137662 -0.000123943 0.354866 -3.89013 0.799849 12.0112
11 2 -3.2949 0.476924 -0.359915 43.2341 -13.8453 4.28594 0 0 0 -0.00751566 0.0033125 0.00146493 -3.2949 0.476924 -0.359915 12.0112
12 6 -1.34943 2.64771 -0.418984 -1.73131 21.2908 4.46157 0 0 0 -0.00104528 -0.000521451 0.00902981 -1.34943 2.64771 -0.418984 14.0067
13 6 -2.09022 -2.17365 0.156646 85.0894 48.7545 54.3804 0 0 0 0.00662072 0.00292469 -0.00360256 -2.09022 -2.17365 0.156646 14.0067
14 4 2.15606 -0.0438671 0.2476 16.8062 -23.8252 5.63355 0 0 0 -0.00625649 0.0123097 -0.00680859 2.15606 -0.0438671 0.2476 1.00797
15 4 1.01316 3.16489 -0.598176 14.691 5.10551 1.90232 0 0 0 -0.00445556 -0.0167239 -0.00537841 1.01316 3.16489 -0.598176 1.00797
16 4 1.54303 2.62139 1.01489 4.52028 12.2631 4.7851 0 0 0 -0.018053 -0.00473134 0.00100659 1.54303 2.62139 1.01489 1.00797
17 4 3.51436 2.98783 -0.561733 5.21412 21.8781 0.153121 0 0 0 -0.00516554 0.00197174 -0.0116637 3.51436 2.98783 -0.561733 1.00797
18 4 3.48797 1.4344 0.109051 -0.0118291 -5.84392 7.0526 0 0 0 -0.0109047 -0.00523963 -0.00401872 3.48797 1.4344 0.109051 1.00797
19 4 3.00245 1.67382 -1.5494 -10.262 -1.09193 0.672472 0 0 0 0.00689871 0.00848998 -0.00671571 3.00245 1.67382 -1.5494 1.00797
20 4 1.76105 -2.67782 -0.377516 -8.04655 0.181139 12.4573 0 0 0 0.0101233 -0.0112524 -0.00375094 1.76105 -2.67782 -0.377516 1.00797
21 4 1.69968 -2.19462 1.36528 -8.69039 -24.9485 -14.1338 0 0 0 -0.00696111 -0.0170695 -0.00518907 1.69968 -2.19462 1.36528 1.00797
22 4 1.14372 -4.53206 1.16078 2.47174 -18.363 7.96679 0 0 0 -0.0171431 -0.0137881 -0.00615888 1.14372 -4.53206 1.16078 1.00797
23 4 -0.343022 -3.6259 1.56167 -18.6931 -10.0666 22.0035 0 0 0 -0.0109708 -0.0152262 0.0199663 -0.343022 -3.6259 1.56167 1.00797
24 4 -0.159057 -4.35331 -0.0633473 4.05493 4.33948 3.35105 0 0 0 -0.00165902 0.00402679 0.00443856 -0.159057 -4.35331 -0.0633473 1.00797
25 4 -3.73215 0.171228 0.603645 -6.33536 4.71234 -3.65205 0 0 0 -0.0193301 0.00450021 0.00471597 -3.73215 0.171228 0.603645 1.00797
26 4 -3.55094 1.5156 -0.590215 -1.32366 2.02138 4.66012 0 0 0 -0.0255971 0.00565469 0.0193284 -3.55094 1.5156 -0.590215 1.00797
27 4 -3.74724 -0.108918 -1.16293 0.184089 -8.04974 -1.87853 0 0 0 -0.0153785 0.00870233 0.000336082 -3.74724 -0.108918 -1.16293 1.00797
28 5 -2.32399 2.84122 -0.28749 -1.15142 -23.5582 -2.47666 0 0 0 0.0295035 -0.0170923 -0.0142807 -2.32399 2.84122 -0.28749 1.00797
29 5 -0.913518 3.45173 0.0271167 12.9034 -25.1945 -4.55624 0 0 0 0.0120655 -0.0370758 -0.0122043 -0.913518 3.45173 0.0271167 1.00797
30 5 -1.59766 -2.96489 -0.112463 13.7532 -26.1952 -7.3769 0 0 0 0.0296052 0.00060148 -0.00265291 -1.59766 -2.96489 -0.112463 1.00797
31 5 -2.8071 -2.02718 -0.429991 -53.9422 14.9264 -45.7336 0 0 0 -0.0140073 0.0327175 0.00762634 -2.8071 -2.02718 -0.429991 1.00797
ITEM: TIMESTEP
2000
ITEM: NUMBER OF ATOMS
31
ITEM: BOX BOUNDS xy xz yz pp pp pp
-5.4588097042405224e+00 4.3340836047723492e+00 -2.0294910063351804e-01
-5.8548354206782633e+00 3.8305450986757497e+00 4.4780364716796806e-01
-2.1633217669266083e+00 2.1637153149280168e+00 0.0000000000000000e+00
ITEM: ATOMS id type x y z fx fy fz ix iy iz vx vy vz xu yu zu mass
1 3 -1.8417 -0.342989 0.303803 47.7363 -20.3477 -36.8709 0 0 0 -0.0114076 -0.00306577 0.00170747 -1.8417 -0.342989 0.303803 12.0112
2 3 -1.07258 -1.27486 -0.458592 -19.1297 6.10142 25.5504 0 0 0 0.00317977 0.00944047 -0.00225842 -1.07258 -1.27486 -0.458592 12.0112
3 3 0.331882 -1.17138 -0.644915 -31.7818 20.6723 37.4618 0 0 0 0.00494641 0.00570104 -0.00261783 0.331882 -1.17138 -0.644915 12.0112
4 3 0.886423 -0.00257529 -0.140072 21.5642 -10.2057 -28.4749 0 0 0 -0.00955198 -0.000680564 0.00626389 0.886423 -0.00257529 -0.140072 12.0112
5 3 0.190055 1.03528 0.413758 -10.8955 -10.4603 7.51863 0 0 0 0.00264129 -0.000839264 -0.00571946 0.190055 1.03528 0.413758 12.0112
6 3 -1.17623 0.816121 0.65201 2.97332 42.5174 17.4496 0 0 0 0.00458566 -0.00231078 -0.00120952 -1.17623 0.816121 0.65201 12.0112
7 1 0.888047 2.35128 0.716885 -37.2035 10.5293 -0.0334584 0 0 0 -0.00809856 0.00412405 -0.00112754 0.888047 2.35128 0.716885 12.0112
8 2 2.36654 2.31551 0.639906 53.3478 -14.2393 -0.35044 0 0 0 -0.00240242 0.00397878 -0.00596114 2.36654 2.31551 0.639906 12.0112
9 1 1.05077 -2.27592 -1.3554 -12.0733 38.3209 -7.35158 0 0 0 0.0054183 -0.0123344 0.00883812 1.05077 -2.27592 -1.3554 12.0112
10 2 2.5263 -2.37263 -1.03141 -10.6025 -28.37 17.4495 0 0 0 0.00154537 0.00105423 0.0035456 2.5263 -2.37263 -1.03141 12.0112
11 2 -3.27752 -0.496987 0.558785 -37.0011 44.3825 8.39699 0 0 0 -0.00535078 -0.0039782 0.000790094 -3.27752 -0.496987 0.558785 12.0112
12 6 -1.87069 1.90553 1.28622 -0.450718 -23.2054 -37.4786 0 0 0 0.00294643 0.00302705 0.00195124 -1.87069 1.90553 1.28622 14.0067
13 6 -1.75534 -2.39281 -0.953242 27.5866 -3.01067 35.5668 0 0 0 0.00507496 -0.000784745 0.00275421 -1.75534 -2.39281 -0.953242 14.0067
14 4 1.94173 0.241016 -0.360907 -3.56439 -18.3089 -1.95355 0 0 0 -0.00376985 -0.00326426 0.000373217 1.94173 0.241016 -0.360907 1.00797
15 4 0.489094 3.06147 -0.0266092 4.04566 6.45329 -1.39495 0 0 0 0.00635129 0.0229387 -0.0184059 0.489094 3.06147 -0.0266092 1.00797
16 4 0.593022 2.78055 1.68791 -0.137102 -5.3973 3.44703 0 0 0 0.00133692 -0.00591163 0.00962254 0.593022 2.78055 1.68791 1.00797
17 4 2.86133 3.22875 1.01313 -2.98457 -0.305108 0.27315 0 0 0 0.018332 -0.00492941 -0.0175247 2.86133 3.22875 1.01313 1.00797
18 4 2.82266 1.44441 1.17174 -7.90188 10.9141 8.72272 0 0 0 0.00454132 0.00137979 -0.00964233 2.82266 1.44441 1.17174 1.00797
19 4 2.75384 2.13361 -0.374951 -5.0465 10.0279 -6.72317 0 0 0 0.00748211 0.00739692 0.0033618 2.75384 2.13361 -0.374951 1.00797
20 4 0.534789 -3.2034 -1.23221 -1.2411 -26.6157 7.43326 0 0 0 -0.000491846 -0.0129338 0.0232182 0.534789 -3.2034 -1.23221 1.00797
21 4 1.26271 -1.95651 1.94572 19.3154 -11.5644 -13.6941 0 0 -1 -0.0169185 0.0306332 0.0135049 0.81491 -1.95651 -2.38131 1.00797
22 4 2.8619 -3.31016 -1.50981 17.0907 13.9689 -8.06692 0 0 0 0.00713822 0.00620826 0.016012 2.8619 -3.31016 -1.50981 1.00797
23 4 3.00822 -1.44053 -1.2532 19.4419 6.97442 -19.0752 0 0 0 0.00710014 0.00705553 -0.00248199 3.00822 -1.44053 -1.2532 1.00797
24 4 2.7664 -2.54267 0.0391243 -11.7914 0.834535 -0.935867 0 0 0 0.02486 0.00282897 -0.014652 2.7664 -2.54267 0.0391243 1.00797
25 4 -3.50535 0.0382862 1.5034 -4.63491 -5.1051 -2.06982 0 0 0 -0.0141048 -0.0040737 -0.0178448 -3.50535 0.0382862 1.5034 1.00797
26 4 -3.90711 0.0381282 -0.211794 10.3176 -11.12 7.11608 0 0 0 0.0163511 0.000822186 -0.0149366 -3.90711 0.0381282 -0.211794 1.00797
27 4 -3.69138 -1.4671 0.720986 -0.560751 -27.4191 -2.48777 0 0 0 0.00145447 -0.000416197 -0.00484128 -3.69138 -1.4671 0.720986 1.00797
28 5 -2.41515 1.58275 2.02792 -12.9517 -4.33163 21.468 0 0 0 0.00849705 -0.0175749 -0.0110168 -2.41515 1.58275 2.02792 1.00797
29 5 -1.18812 2.54019 1.56754 12.9455 20.0898 15.3455 0 0 0 -0.0277829 -0.0128552 -0.0282127 -1.18812 2.54019 1.56754 1.00797
30 5 -1.18479 -2.79442 -1.6155 14.9978 -23.1467 -31.7562 0 0 0 0.0305989 -0.0218139 -0.0185121 -1.18479 -2.79442 -1.6155 1.00797
31 5 -2.64365 -2.24812 -1.2762 -41.4103 11.3662 -14.4821 0 0 0 -0.00972117 -0.0396331 -0.000234641 -2.64365 -2.24812 -1.2762 1.00797
ITEM: TIMESTEP
3000
ITEM: NUMBER OF ATOMS
31
ITEM: BOX BOUNDS xy xz yz pp pp pp
-5.8086785931420888e+00 4.6805950959941578e+00 -1.7273587866133480e-01
-5.1338996032674267e+00 3.1096092812644387e+00 4.1423302751765029e-01
-2.0011286751478234e+00 2.0015222231496992e+00 0.0000000000000000e+00
ITEM: ATOMS id type x y z fx fy fz ix iy iz vx vy vz xu yu zu mass
1 3 -1.67644 0.411035 0.0318165 -55.9252 1.27505 28.6158 0 0 0 0.0152237 -0.00257931 -0.00649594 -1.67644 0.411035 0.0318165 12.0112
2 3 -1.47596 -0.889055 0.536994 4.44275 7.79065 3.02112 0 0 0 -0.00385277 -0.00801026 -0.00593899 -1.47596 -0.889055 0.536994 12.0112
3 3 -0.189324 -1.48559 0.558326 -29.9437 -13.6756 -3.50303 0 0 0 0.000448115 0.0064896 0.00312154 -0.189324 -1.48559 0.558326 12.0112
4 3 0.823111 -0.71951 0.0575459 28.9733 -24.3251 0.399906 0 0 0 0.00925567 -0.00545748 0.00406511 0.823111 -0.71951 0.0575459 12.0112
5 3 0.658716 0.534989 -0.467476 7.80451 0.806138 0.135418 0 0 0 -0.0053954 0.00332127 0.00129866 0.658716 0.534989 -0.467476 12.0112
6 3 -0.620484 1.13942 -0.440609 40.7978 9.38631 -19.7014 0 0 0 0.00382228 0.000207669 0.00540834 -0.620484 1.13942 -0.440609 12.0112
7 1 1.85345 1.1946 -1.12198 -9.46392 43.8433 14.1274 0 0 0 0.002372 -0.00326072 -0.000675413 1.85345 1.1946 -1.12198 12.0112
8 2 3.24363 0.591473 -1.21688 -12.7539 -25.4311 26.2878 0 0 0 -0.00510617 0.00048789 0.00667308 3.24363 0.591473 -1.21688 12.0112
9 1 0.0357286 -2.93536 1.05926 1.12853 22.8778 -4.97641 0 0 0 -0.00689381 0.00618495 0.00538085 0.0357286 -2.93536 1.05926 12.0112
10 2 1.43542 -3.41815 0.748498 32.4535 1.43674 -8.67705 0 0 0 -0.00639359 0.00434093 -0.00215906 1.43542 -3.41815 0.748498 12.0112
11 2 -3.08354 1.10735 0.137044 27.4332 9.88572 -12.7171 0 0 0 -0.00673944 0.00271012 0.00195066 -3.08354 1.10735 0.137044 12.0112
12 6 -0.78112 2.46456 -0.944112 7.35227 9.86943 13.0012 0 0 0 -0.00213364 -0.00196836 -0.000432961 -0.78112 2.46456 -0.944112 14.0067
13 6 -2.5562 -1.58001 1.08436 -11.718 -26.5141 3.07312 0 0 0 0.00145967 0.00261182 -0.00702641 -2.5562 -1.58001 1.08436 14.0067
14 4 1.84005 -1.21966 0.0585268 -17.2018 23.5906 -5.2518 0 0 0 -0.00993923 0.00224504 -0.0183837 1.84005 -1.21966 0.0585268 1.00797
15 4 1.90654 1.40618 1.8838 4.20693 5.44606 -19.4999 0 0 -1 -0.00802514 -0.0117486 -0.00334398 1.49231 1.40618 -2.11885 1.00797
16 4 1.97956 2.19864 -0.639024 -0.223937 -8.59148 -4.72372 0 0 0 0.0161177 -0.0289401 0.0266117 1.97956 2.19864 -0.639024 1.00797
17 4 3.897 1.25235 -1.73042 19.1294 15.7513 -18.1814 0 0 0 0.00379949 0.00823178 0.0220644 3.897 1.25235 -1.73042 1.00797
18 4 3.70398 0.404024 -0.231875 -4.83738 1.98019 1.73816 0 0 0 -0.00759211 -0.00605202 -0.00339681 3.70398 0.404024 -0.231875 1.00797
19 4 3.20029 -0.369767 -1.71815 2.58179 -8.75803 -9.53403 0 0 0 -0.0161552 0.0054208 -0.00296378 3.20029 -0.369767 -1.71815 1.00797
20 4 -0.493096 -2.93069 -1.86059 -3.81936 -2.66877 10.4849 0 0 1 0.0253618 -0.00895357 -0.0208165 -0.0788632 -2.93069 2.14206 1.00797
21 4 -0.660762 -3.67699 0.660958 -10.3179 4.66136 -4.17843 0 0 0 0.024063 0.0164954 0.00673225 -0.660762 -3.67699 0.660958 1.00797
22 4 1.57218 -4.45146 1.12064 0.916189 1.54748 -8.1904 0 0 0 0.0152535 0.00816587 -0.00092095 1.57218 -4.45146 1.12064 1.00797
23 4 1.71961 -3.34443 -0.372555 -9.09867 -7.16381 33.8349 0 0 0 -0.015599 0.00567094 -0.00439959 1.71961 -3.34443 -0.372555 1.00797
24 4 2.17081 -2.80004 1.34159 -6.96114 -10.2541 -11.6075 0 0 0 0.0159474 -0.0384883 -0.0312564 2.17081 -2.80004 1.34159 1.00797
25 4 -2.93369 2.13444 0.564062 -4.14058 -10.1665 -7.5502 0 0 0 0.00827397 0.00638038 -0.00475232 -2.93369 2.13444 0.564062 1.00797
26 4 -3.54829 1.20204 -0.878905 3.04591 -1.32409 13.6077 0 0 0 0.0146773 -0.00488975 -0.0182136 -3.54829 1.20204 -0.878905 1.00797
27 4 -3.78404 0.640031 0.825854 -2.86959 -8.69042 0.309744 0 0 0 -0.00320746 -0.0173825 -0.00769992 -3.78404 0.640031 0.825854 1.00797
28 5 -1.69496 2.84974 -0.671067 27.7199 -3.61289 -3.38156 0 0 0 0.016928 -0.00401443 0.0156766 -1.69496 2.84974 -0.671067 1.00797
29 5 0.0471338 3.06441 -0.703094 -37.1133 -19.0814 -6.56282 0 0 0 -0.0170107 0.00450741 -0.00358476 0.0471338 3.06441 -0.703094 1.00797
30 5 -2.4766 -2.57155 0.898287 -5.10454 11.3131 4.24093 0 0 0 0.00654622 -0.0283635 0.00319449 -2.4766 -2.57155 0.898287 1.00797
31 5 -3.48564 -1.22986 0.907472 13.5069 -1.20394 -4.64137 0 0 0 -0.0212346 0.0299293 -0.00137971 -3.48564 -1.22986 0.907472 1.00797
ITEM: TIMESTEP
4000
ITEM: NUMBER OF ATOMS
31
ITEM: BOX BOUNDS xy xz yz pp pp pp
-5.4693053942334267e+00 4.4132294475077245e+00 -1.9083327722797161e-01
-5.5657324889061925e+00 3.5414421669020242e+00 5.0433797650777623e-01
-2.4364617256980567e+00 2.4368552737012790e+00 0.0000000000000000e+00
ITEM: ATOMS id type x y z fx fy fz ix iy iz vx vy vz xu yu zu mass
1 3 -1.55291 0.0555717 -0.625784 31.5329 -11.9364 -14.9714 0 0 0 -0.00448964 0.0010775 -0.00393528 -1.55291 0.0555717 -0.625784 12.0112
2 3 -1.18063 -1.28629 -0.430868 32.7662 -1.44385 28.403 0 0 0 0.00065954 -0.00658875 0.000671092 -1.18063 -1.28629 -0.430868 12.0112
3 3 0.00684516 -1.57401 0.272841 19.1332 33.0794 -9.6473 0 0 0 0.00326685 0.00169266 -0.00331604 0.00684516 -1.57401 0.272841 12.0112
4 3 0.752294 -0.443302 0.737191 -2.4916 -34.5416 2.94487 0 0 0 -0.00135276 0.0107006 0.00483034 0.752294 -0.443302 0.737191 12.0112
5 3 0.466633 0.906308 0.601827 -45.8188 -36.4835 -25.1865 0 0 0 0.00265793 0.00182582 -0.000449604 0.466633 0.906308 0.601827 12.0112
6 3 -0.678729 1.1064 -0.174392 -39.5077 3.09957 7.86077 0 0 0 -0.00730962 -0.00796844 0.00465502 -0.678729 1.1064 -0.174392 12.0112
7 1 1.24635 2.06355 1.10547 60.0936 12.29 35.072 0 0 0 0.00812815 0.00327015 -0.00500326 1.24635 2.06355 1.10547 12.0112
8 2 2.18192 2.5758 0.003058 -10.7333 -34.9763 -26.1217 0 0 0 -0.00561393 0.00479815 0.0131352 2.18192 2.5758 0.003058 12.0112
9 1 0.538831 -3.04798 0.311541 -6.96768 39.8495 64.7826 0 0 0 -0.00131749 -0.00104701 0.00882293 0.538831 -3.04798 0.311541 12.0112
10 2 1.84937 -3.27515 1.1142 16.5695 9.19134 18.7107 0 0 0 0.00118045 -0.00180562 -0.00547193 1.84937 -3.27515 1.1142 12.0112
11 2 -2.76593 0.229168 -1.49742 -20.9763 54.5962 22.1663 0 0 0 -0.0074728 -0.00233132 -0.00682222 -2.76593 0.229168 -1.49742 12.0112
12 6 -1.11068 2.44345 -0.347805 -12.2173 -21.8199 -36.9177 0 0 0 0.0064089 -0.00483774 0.00403088 -1.11068 2.44345 -0.347805 14.0067
13 6 -1.9751 -2.33627 -0.894199 -37.6163 -7.51428 -46.5189 0 0 0 -0.000766661 -0.0019713 -0.00187535 -1.9751 -2.33627 -0.894199 14.0067
14 4 1.63702 -0.712261 1.30166 14.1539 2.56349 7.58058 0 0 0 -0.0295478 0.000253582 -0.0231317 1.63702 -0.712261 1.30166 1.00797
15 4 0.750147 2.95523 1.55786 -13.4381 -17.4105 -4.51735 0 0 0 0.0100054 0.023237 0.0183686 0.750147 2.95523 1.55786 1.00797
16 4 1.97545 1.75833 1.93081 -21.586 -2.80746 -13.6054 0 0 0 0.000489556 0.000585339 -0.00158436 1.97545 1.75833 1.93081 1.00797
17 4 3.03031 3.11807 0.440248 1.55272 2.75032 -6.55724 0 0 0 0.00971349 0.0181219 -0.0175297 3.03031 3.11807 0.440248 1.00797
18 4 2.56811 1.64516 -0.546433 0.336263 26.6937 9.23728 0 0 0 -0.0131642 0.00669783 -0.0091795 2.56811 1.64516 -0.546433 1.00797
19 4 1.6105 3.18004 -0.749615 13.1096 -2.87464 9.29153 0 0 0 -0.00543564 -0.00836456 -0.0237195 1.6105 3.18004 -0.749615 1.00797
20 4 -0.187037 -3.6495 0.854877 -13.317 -5.72502 4.33327 0 0 0 0.00674131 0.0206977 0.00300142 -0.187037 -3.6495 0.854877 1.00797
21 4 0.544444 -3.44101 -0.659229 11.0898 -17.2293 -39.2712 0 0 0 0.012211 0.00959287 -0.0150781 0.544444 -3.44101 -0.659229 1.00797
22 4 2.09883 -4.34765 1.12499 1.49076 5.41283 -4.48898 0 0 0 -0.000352169 0.00159535 -0.0163507 2.09883 -4.34765 1.12499 1.00797
23 4 2.73697 -2.73743 0.646555 -17.6761 -9.02402 14.7669 0 0 0 0.0166818 -0.00807798 0.0134703 2.73697 -2.73743 0.646555 1.00797
24 4 1.77088 -3.06177 2.27088 -0.537275 5.69178 -46.8426 0 0 0 -0.00135541 0.000878095 -0.0203041 1.77088 -3.06177 2.27088 1.00797
25 4 -2.23551 -0.154898 2.36959 14.6481 -1.96654 -17.7031 0 0 -1 0.0130285 -0.0143589 -0.00490515 -2.73985 -0.154898 -2.50373 1.00797
26 4 -3.64351 -0.243979 -1.07529 -11.1152 -9.11077 12.4878 0 0 0 0.0104924 -0.0196182 -0.00696902 -3.64351 -0.243979 -1.07529 1.00797
27 4 -3.06207 1.31421 -1.51055 3.83538 -15.5258 -9.5678 0 0 0 -0.00579576 0.0177864 -0.0267343 -3.06207 1.31421 -1.51055 1.00797
28 5 -2.09123 2.52063 -0.297947 -14.7046 -1.46783 -3.09717 0 0 0 -0.000169916 -0.0183845 0.020665 -2.09123 2.52063 -0.297947 1.00797
29 5 -0.727373 3.06008 0.278571 22.9053 24.1115 28.8796 0 0 0 0.0340606 0.0186792 0.0073009 -0.727373 3.06008 0.278571 1.00797
30 5 -1.66767 -3.31679 -0.942099 2.87619 31.171 1.60891 0 0 0 0.00974112 0.0128823 -0.0191772 -1.66767 -3.31679 -0.942099 1.00797
31 5 -2.51683 -2.03964 -1.75776 22.6097 -18.6429 36.8885 0 0 0 -0.00676621 -0.0107664 0.00710607 -2.51683 -2.03964 -1.75776 1.00797
ITEM: TIMESTEP
5000
ITEM: NUMBER OF ATOMS
31
ITEM: BOX BOUNDS xy xz yz pp pp pp
-4.4261431172169550e+00 3.3480289201346918e+00 -1.8476419344472556e-01
-5.4209144393046671e+00 3.3966241172997402e+00 4.7623064236700996e-01
-2.3006639515300034e+00 2.3010574995339343e+00 0.0000000000000000e+00
ITEM: ATOMS id type x y z fx fy fz ix iy iz vx vy vz xu yu zu mass
1 3 -1.63528 -0.160187 -0.846498 -0.809329 34.6026 13.4043 0 0 0 -0.00417679 -0.0020008 -0.000502009 -1.63528 -0.160187 -0.846498 12.0112
2 3 -1.12531 -1.40205 -0.42808 -11.2993 -8.31656 1.86483 0 0 0 -0.000493428 -0.0033705 -0.00232064 -1.12531 -1.40205 -0.42808 12.0112
3 3 0.024698 -1.54669 0.384231 -31.8142 44.5999 -29.9477 0 0 0 -0.000134704 -0.00406544 -0.00447106 0.024698 -1.54669 0.384231 12.0112
4 3 0.631089 -0.327799 0.676936 -9.03778 -3.99712 11.9543 0 0 0 -0.00253098 8.76716e-05 0.00739553 0.631089 -0.327799 0.676936 12.0112
5 3 0.15008 0.948447 0.430073 7.46797 8.11426 -3.86604 0 0 0 0.00523569 0.00150335 0.008907 0.15008 0.948447 0.430073 12.0112
6 3 -0.997824 1.04215 -0.374964 -4.5711 -3.02187 -1.63301 0 0 0 -0.00920689 0.00484322 -0.000997945 -0.997824 1.04215 -0.374964 12.0112
7 1 0.940119 2.18361 1.03108 -0.500386 -19.1707 -5.51467 0 0 0 0.00645865 0.00297239 0.000418967 0.940119 2.18361 1.03108 12.0112
8 2 2.32419 2.35736 0.319781 -25.8873 1.3191 -9.46595 0 0 0 0.00344768 0.000775464 -0.00295369 2.32419 2.35736 0.319781 12.0112
9 1 0.476435 -2.8945 0.82373 32.53 -9.99529 29.4942 0 0 0 0.00347989 0.00299183 -0.00444322 0.476435 -2.8945 0.82373 12.0112
10 2 1.97403 -2.83741 1.36868 -27.1544 -13.4661 1.98898 0 0 0 6.55573e-05 0.00278502 0.0032129 1.97403 -2.83741 1.36868 12.0112
11 2 -2.91489 -0.099495 -1.71134 24.2597 -41.097 -20.9827 0 0 0 0.00711591 -0.000546002 0.000166596 -2.91489 -0.099495 -1.71134 12.0112
12 6 -1.47955 2.34925 -0.694251 0.837483 -4.60603 4.71148 0 0 0 0.000164629 -0.0015693 -0.00135923 -1.47955 2.34925 -0.694251 14.0067
13 6 -1.89235 -2.53939 -0.840049 24.6915 -11.8303 12.9066 0 0 0 -0.00665051 -0.00182087 -0.00511769 -1.89235 -2.53939 -0.840049 14.0067
14 4 1.50247 -0.343753 1.29868 21.7962 -3.1397 13.5631 0 0 0 -0.00200757 -0.0311456 0.00222683 1.50247 -0.343753 1.29868 1.00797
15 4 0.376322 3.12917 0.917884 0.938 -7.12759 -0.154248 0 0 0 -0.00128497 -0.0118158 -0.00163978 0.376322 3.12917 0.917884 1.00797
16 4 1.07015 2.06743 2.14832 -0.303645 -1.76434 -19.2632 0 0 0 0.0245122 0.00434164 -0.00108458 1.07015 2.06743 2.14832 1.00797
17 4 2.85485 3.24655 0.683902 1.4894 0.292819 -1.13085 0 0 0 -0.00411581 4.99044e-05 0.00923413 2.85485 3.24655 0.683902 1.00797
18 4 2.9786 1.49513 0.45354 2.39578 -6.17327 3.4688 0 0 0 -0.00622674 -0.0165841 0.00183895 2.9786 1.49513 0.45354 1.00797
19 4 2.13992 2.474 -0.781881 5.50061 1.3275 13.4629 0 0 0 -0.0290995 0.00849152 0.00449952 2.13992 2.474 -0.781881 1.00797
20 4 -0.235834 -3.34267 1.61262 22.2901 9.4745 -21.367 0 0 0 0.0465582 0.000819476 0.0130581 -0.235834 -3.34267 1.61262 1.00797
21 4 0.52366 -3.56605 -0.0284136 -6.1571 -9.59777 -8.67018 0 0 0 -0.0142362 -0.0300042 0.00928058 0.52366 -3.56605 -0.0284136 1.00797
22 4 2.2682 -3.84625 1.7197 -0.0662061 4.81629 -1.58291 0 0 0 0.0161306 -0.00534083 0.0209196 2.2682 -3.84625 1.7197 1.00797
23 4 2.7343 -2.51905 0.621985 -10.3727 1.02205 3.37579 0 0 0 -0.00235348 0.0395516 -0.00689044 2.7343 -2.51905 0.621985 1.00797
24 4 1.99447 -2.19992 2.25786 7.07184 3.70651 2.91652 0 0 0 -0.00504448 -0.00032842 0.00317303 1.99447 -2.19992 2.25786 1.00797
25 4 -3.81456 -0.615949 -1.30464 10.3239 4.52699 4.23993 0 0 0 0.010243 0.00672944 0.00209755 -3.81456 -0.615949 -1.30464 1.00797
26 4 -3.18795 0.885473 -1.97693 -10.1141 32.2285 -3.34002 0 0 0 -0.0224367 -0.0109622 -0.00755398 -3.18795 0.885473 -1.97693 1.00797
27 4 -2.22078 -0.590981 1.87679 -7.10742 8.37504 25.2364 0 0 -1 0.000838144 0.0199531 0.00352987 -2.69701 -0.590981 -2.72494 1.00797
28 5 -2.46251 2.38067 -0.924937 10.5285 2.22359 6.58995 0 0 0 -0.0181821 -0.00313898 -0.0336821 -2.46251 2.38067 -0.924937 1.00797
29 5 -1.14708 3.09781 -0.072925 -12.8135 -22.1224 -12.9571 0 0 0 -0.00418765 -0.00829596 0.015926 -1.14708 3.09781 -0.072925 1.00797
30 5 -1.35429 -3.39053 -0.717035 -7.61337 11.2611 -3.07128 0 0 0 -0.0247477 0.0134789 -0.0132873 -1.35429 -3.39053 -0.717035 1.00797
31 5 -2.10191 -2.41637 -1.80524 -6.49933 -2.46462 -6.23136 0 0 0 0.0154175 9.68761e-05 0.0157776 -2.10191 -2.41637 -1.80524 1.00797
ITEM: TIMESTEP
6000
ITEM: NUMBER OF ATOMS
31
ITEM: BOX BOUNDS xy xz yz pp pp pp
-4.2295559611384652e+00 3.1988554509558460e+00 -1.9138734321947173e-01
-5.5789533899707191e+00 3.5546630679647762e+00 5.3026747904112681e-01
-2.5617375242366505e+00 2.5621310722419475e+00 0.0000000000000000e+00
ITEM: ATOMS id type x y z fx fy fz ix iy iz vx vy vz xu yu zu mass
1 3 -1.67647 -0.227428 -0.698723 38.8561 -25.2303 -3.50184 0 0 0 -0.0025539 0.00337532 -0.00612655 -1.67647 -0.227428 -0.698723 12.0112
2 3 -0.990672 -1.48632 -0.451597 -22.324 36.1711 -23.5085 0 0 0 0.000247527 0.00026788 -0.00399704 -0.990672 -1.48632 -0.451597 12.0112
3 3 0.185468 -1.45282 0.305386 14.9362 -70.4207 20.127 0 0 0 0.00246674 0.00320175 -0.000918819 0.185468 -1.45282 0.305386 12.0112
4 3 0.66371 -0.259273 0.757936 -9.61021 -18.0367 -0.587393 0 0 0 -0.000808124 0.00143043 -0.00281496 0.66371 -0.259273 0.757936 12.0112
5 3 0.0817293 0.940262 0.501906 -5.62696 45.8134 -3.84107 0 0 0 0.000686486 -0.00211671 0.00970052 0.0817293 0.940262 0.501906 12.0112
6 3 -1.03823 1.0021 -0.31838 -38.8438 -47.2253 -3.79062 0 0 0 0.000318403 0.0013906 -0.000469464 -1.03823 1.0021 -0.31838 12.0112
7 1 0.763269 2.15359 1.09377 -10.0875 -0.0120732 -60.757 0 0 0 0.00219838 -0.00282251 0.000191333 0.763269 2.15359 1.09377 12.0112
8 2 1.52855 2.84239 -0.0456728 39.1563 2.1907 9.24519 0 0 0 0.000706318 0.00115494 0.00535441 1.52855 2.84239 -0.0456728 12.0112
9 1 0.938622 -2.83659 0.833182 -30.8153 55.4016 -0.861419 0 0 0 -0.00371384 -0.00118408 0.000702617 0.938622 -2.83659 0.833182 12.0112
10 2 2.34361 -2.55279 1.51935 -34.7176 12.9211 8.35268 0 0 0 -0.00585762 0.00264844 0.00308252 2.34361 -2.55279 1.51935 12.0112
11 2 -2.95393 -0.224454 -1.5155 -6.31549 21.3766 14.4497 0 0 0 0.000177878 -0.00452005 0.0022909 -2.95393 -0.224454 -1.5155 12.0112
12 6 -1.72261 2.15896 -0.72834 31.1611 49.4313 33.0846 0 0 0 0.00221428 0.00393453 -0.00712499 -1.72261 2.15896 -0.72834 14.0067
13 6 -1.49949 -2.67178 -1.07764 17.4339 39.7982 85.4414 0 0 0 0.00419577 -0.0030039 -0.00102757 -1.49949 -2.67178 -1.07764 14.0067
14 4 1.53899 -0.324021 1.37665 15.5225 9.98228 11.9005 0 0 0 -0.00375151 -0.0377541 0.0197206 1.53899 -0.324021 1.37665 1.00797
15 4 0.170167 2.94563 1.50123 -27.335 7.87388 10.5281 0 0 0 0.00443039 0.0166222 -0.0124537 0.170167 2.94563 1.50123 1.00797
16 4 1.33968 1.81889 1.8874 39.872 -9.64355 38.6251 0 0 0 -0.00819975 0.0139266 0.00663082 1.33968 1.81889 1.8874 1.00797
17 4 2.31646 3.53238 0.382228 -14.1658 -8.35204 -9.18934 0 0 0 -0.0113621 0.023314 -0.017259 2.31646 3.53238 0.382228 1.00797
18 4 2.04042 2.24142 -0.828323 -2.56934 -7.61405 15.1719 0 0 0 -0.00299518 0.0203716 0.0148697 2.04042 2.24142 -0.828323 1.00797
19 4 0.847567 3.41754 -0.638677 -17.2733 18.1879 -7.49132 0 0 0 -0.0187498 -0.0435371 0.00342467 0.847567 3.41754 -0.638677 1.00797
20 4 0.22794 -3.3875 1.52754 16.3567 15.6499 -2.17415 0 0 0 0.00176707 0.0235878 -0.0302844 0.22794 -3.3875 1.52754 1.00797
21 4 0.972863 -3.51661 -0.00436841 16.1239 -6.65443 -15.0531 0 0 0 0.0232333 0.0318664 0.0146108 0.972863 -3.51661 -0.00436841 1.00797
22 4 2.75444 -3.49051 1.76358 21.5326 -34.5666 6.86431 0 0 0 -0.00754686 -0.0329488 -0.00782255 2.75444 -3.49051 1.76358 1.00797
23 4 -3.60998 -1.98843 0.958565 -4.77583 -0.761605 -12.539 1 0 0 0.000401546 0.0152194 -0.00492243 3.09677 -1.98843 0.958565 1.00797
24 4 2.2592 -2.03726 2.51307 -10.8101 -6.01165 -13.2398 0 0 0 -0.00593162 -0.00449556 -0.00716671 2.2592 -2.03726 2.51307 1.00797
25 4 -3.27208 -1.24265 -1.75809 -8.37798 6.62771 -0.515829 0 0 0 0.0359628 -0.0254023 0.0217355 -3.27208 -1.24265 -1.75809 1.00797
26 4 -3.76467 0.321579 -0.935017 11.2392 -18.6007 -13.4963 0 0 0 -0.0297414 0.011656 0.00765997 -3.76467 0.321579 -0.935017 1.00797
27 4 -2.8022 0.33763 -2.45561 -1.76986 -4.49586 -0.668761 0 0 0 -0.00137285 -0.0148982 0.0172061 -2.8022 0.33763 -2.45561 1.00797