LAMMPS data file via write_data, version 12 Jun 2025, timestep = 8000, units = real

31 atoms
6 atom types
31 bonds
9 bond types
54 angles
14 angle types
68 dihedrals
14 dihedral types
28 impropers
11 improper types

-4.157433581292864 2.7878529352884134 xlo xhi
-5.814587801526425 3.790297479518261 ylo yhi
-2.863391990777729 2.86378553878572 zlo zhi
-0.2012623898028353 0.5927037224783146 0 xy xz yz

Masses

1 12.01115
2 12.01115
3 12.01115
4 1.00797
5 1.00797
6 14.0067

Pair Coeffs # lj/class2/coul/long

1 0.054 4.01
2 0.054 3.9
3 0.064 4.01
4 0.02 2.995
5 0.013 1.098
6 0.065 4.07

Bond Coeffs # class2

1 1.53 299.67 -501.77 679.81
2 1.501 321.902 -521.821 572.163
3 1.101 345 -691.89 844.6
4 1.501 321.902 -521.821 572.163
5 1.101 345 -691.89 844.6
6 1.417 470.836 -627.618 1327.63
7 1.0982 372.825 -803.453 894.317
8 1.3912 447.044 -784.535 886.167
9 1.0012 465.861 -1066.24 1496.56

Angle Coeffs # class2

1 110.77 41.453 -10.604 5.129
2 120.05 44.7148 -22.7352 0
3 108.4 43.9594 -8.3924 -9.3379
4 110.77 41.453 -10.604 5.129
5 120.05 44.7148 -22.7352 0
6 111 44.3234 -9.4454 0
7 111 44.3234 -9.4454 0
8 118.9 61.0226 -34.9931 0
9 117.94 35.1558 -12.4682 0
10 121.458 61.0647 -21.6172 0
11 111.873 40.8369 -15.6673 0
12 107.66 39.641 -12.921 -2.4318
13 107.66 39.641 -12.921 -2.4318
14 107.513 42.5182 -21.7566 -4.3372

BondBond Coeffs

1 3.3872 1.53 1.101
2 12.0676 1.501 1.417
3 0 1.53 1.501
4 3.3872 1.53 1.101
5 12.0676 1.501 1.417
6 2.9168 1.501 1.101
7 2.9168 1.501 1.101
8 68.2856 1.417 1.417
9 1.0795 1.417 1.0982
10 46.9513 1.417 1.3912
11 4.5393 1.3912 1.0012
12 5.3316 1.101 1.101
13 5.3316 1.101 1.101
14 -9.9447 1.0012 1.0012

BondAngle Coeffs

1 20.754 11.421 1.53 1.101
2 47.0579 31.0771 1.501 1.417
3 0 0 1.53 1.501
4 20.754 11.421 1.53 1.101
5 47.0579 31.0771 1.501 1.417
6 26.4608 11.7717 1.501 1.101
7 26.4608 11.7717 1.501 1.101
8 28.8708 28.8708 1.417 1.417
9 20.0033 24.2183 1.417 1.0982
10 39.404 73.6548 1.417 1.3912
11 38.5704 16.5524 1.3912 1.0012
12 18.103 18.103 1.101 1.101
13 18.103 18.103 1.101 1.101
14 17.1597 17.1597 1.0012 1.0012

Dihedral Coeffs # class2

1 -0.0228 0 0.028 0 -0.1863 0
2 -0.1432 0 0.0617 0 -0.1083 0
3 -0.2802 0 -0.0678 0 -0.0122 0
4 -0.2801 0 -0.0678 0 -0.0122 0
5 -0.2801 0 -0.0678 0 -0.0122 0
6 0 0 4.4072 0 0 0
7 0 0 4.4072 0 0 0
8 8.3667 0 1.1932 0 0 0
9 0 0 3.9661 0 0 0
10 0 0 1.559 0 0 0
11 0 0 3 0 0 0
12 0 0 3 0 0 0
13 0 0 5.3826 0 0 0
14 0 0 1.219 0 0 0

AngleAngleTorsion Coeffs

1 0 108.4 110.77
2 -12.564 110.77 110.77
3 0 108.4 120.05
4 -5.8888 111 120.05
5 -5.8888 111 120.05
6 -14.4097 120.05 118.9
7 -14.4097 120.05 118.9
8 0 118.9 118.9
9 -4.8141 118.9 117.94
10 4.4444 120.05 117.94
11 0 120.05 121.458
12 0 120.05 121.458
13 0 118.9 121.458
14 -7.1755 121.458 111.872

EndBondTorsion Coeffs

1 0 0 0 0 0 0 1.501 1.101
2 0.213 0.312 0.0777 0.213 0.312 0.0777 1.101 1.101
3 0 0 0 0 0 0 1.53 1.417
4 1.3997 0.7756 0 -0.5835 1.122 0.3978 1.101 1.417
5 1.3997 0.7756 0 -0.5835 1.122 0.3978 1.101 1.417
6 0 0.2421 0 0 -0.6918 0 1.501 1.417
7 0 0.2421 0 0 -0.6918 0 1.501 1.417
8 -0.1185 6.3204 0 -0.1185 6.3204 0 1.417 1.417
9 0 -6.8958 0 0 -0.4669 0 1.417 1.0982
10 0 -1.797 0 0 -0.4879 0 1.501 1.0982
11 0 0 0 0 0 0 1.501 1.3912
12 0 0 0 0 0 0 1.501 1.3912
13 0 -6.5404 0 0 -7.3477 0 1.417 1.3912
14 0 -3.7281 0 0 0.2849 0 1.417 1.0012

MiddleBondTorsion Coeffs

1 0 0 0 1.53
2 -14.261 -0.5322 -0.4864 1.53
3 0 0 0 1.501
4 -5.5679 1.4083 0.301 1.501
5 -5.5679 1.4083 0.301 1.501
6 0 9.1792 0 1.417
7 0 9.1792 0 1.417
8 27.5989 -2.312 0 1.417
9 0 -1.1521 0 1.417
10 0 3.9421 0 1.417
11 0 0 0 1.417
12 0 0 0 1.417
13 0 -0.5693 0 1.417
14 0 3.2085 0 1.3912

BondBond13 Coeffs

1 0 1.501 1.101
2 0 1.101 1.101
3 0 1.53 1.417
4 -3.4826 1.101 1.417
5 -3.4826 1.101 1.417
6 2.5085 1.501 1.417
7 2.5085 1.501 1.417
8 53 1.417 1.417
9 -6.2741 1.417 1.0982
10 0.8743 1.501 1.0982
11 0 1.501 1.3912
12 0 1.501 1.3912
13 -9.7999 1.417 1.3912
14 4.2366 1.417 1.0012

AngleTorsion Coeffs

1 0 0 0 0 0 0 108.4 110.77
2 -0.8085 0.5569 -0.2466 -0.8085 0.5569 -0.2466 110.77 110.77
3 0 0 0 0 0 0 108.4 120.05
4 4.6266 0.1632 0.0461 0.2251 0.6548 0.1237 111 120.05
5 4.6266 0.1632 0.0461 0.2251 0.6548 0.1237 111 120.05
6 0 -4.4683 0 0 3.8987 0 120.05 118.9
7 0 -4.4683 0 0 3.8987 0 120.05 118.9
8 1.9767 1.0239 0 1.9767 1.0239 0 118.9 118.9
9 0 2.5014 0 0 2.7147 0 118.9 117.94
10 0 -0.1242 0 0 3.4601 0 120.05 117.94
11 0 0 0 0 0 0 120.05 121.458
12 0 0 0 0 0 0 120.05 121.458
13 0 9.0901 0 0 -6.0882 0 118.9 121.458
14 0 1.2616 0 0 0.7744 0 121.458 111.872

Improper Coeffs # class2

1 7.8153 0
2 7.8153 0
3 4.8912 0
4 10.7855 0
5 0 0
6 0 0
7 0 0
8 0 0
9 0 0
10 0 0
11 0 0

AngleAngle Coeffs

1 0 0 0 120.05 118.9 120.05
2 0 0 0 120.05 118.9 120.05
3 0 0 0 118.9 117.94 117.94
4 0 0 0 118.9 121.458 121.458
5 0 0 0 111.872 107.513 111.872
6 0.2738 -0.4825 0.2738 110.77 110.77 107.66
7 2.0403 -1.8202 1.0827 108.4 110.77 111
8 0.2738 -0.4825 0.2738 110.77 110.77 107.66
9 2.3794 3.0118 2.3794 111 111 107.66
10 2.3794 3.0118 2.3794 111 111 107.66
11 -0.3157 -0.3157 -0.3157 107.66 107.66 107.66

Atoms # full

1 1 3 0 -1.5730334668499686 -0.6406018295718994 -0.5448346704592391 0 0 0
2 1 3 0.0827 -0.9552161556173413 -1.3138832836037135 0.5444111735265369 0 0 0
3 1 3 0 0.22111644049556745 -0.766949308199421 1.1456220712451737 0 0 0
4 1 3 -0.1268 0.684214944274772 0.4602480717142736 0.8039085061659792 0 0 0
5 1 3 0 0.08972515298301165 1.1454084435963452 -0.23179596828237603 0 0 0
6 1 3 0.0827 -1.1014608861197668 0.6029036372135277 -0.8485602940175085 0 0 0
7 1 1 -0.106 0.6585921704441935 2.5079154312866656 -0.6138801730658172 0 0 0
8 1 2 -0.159 2.0777288196176613 2.5717011144626714 -1.1510225522332904 0 0 0
9 1 1 -0.106 0.9261432437600856 -1.587057935935288 2.169340654505339 0 0 0
10 1 2 -0.159 2.0515988856389322 -2.3711684324997315 1.339648808911396 0 0 0
11 1 2 -0.159 -2.765881513224552 -1.2047930324223932 -1.3910087364178694 0 0 0
12 1 6 -0.5800999999999999 -1.7655430754187944 1.3778283219085363 -1.9069696379841683 0 0 0
13 1 6 -0.5800999999999999 -1.4862792441770072 -2.5706180647231136 0.9639991525543135 0 0 0
14 1 4 0.1268 1.5902207385768037 0.738632240155126 1.3548760271766183 0 0 0
15 1 4 0.053 0.08424892097729941 2.9978364919291547 -1.4205190316383325 0 0 0
16 1 4 0.053 0.7380766656015298 3.216936153255171 0.23872052757501017 0 0 0
17 1 4 0.053 2.2121326030554895 3.6882336202639383 -1.0568347945978078 0 0 0
18 1 4 0.053 2.7737791919302586 2.095219635595103 -0.406674407432166 0 0 0
19 1 4 0.053 2.2323207261068756 2.052179822283936 -2.0723002483514987 0 0 0
20 1 4 0.053 0.7758890062135277 -1.0208822990091475 -2.7120530668315816 0 0 1
21 1 4 0.053 0.332105581591132 -2.315210285732992 2.659658010041767 0 0 0
22 1 4 0.053 2.584882470703418 -2.9955129410731622 2.059772809994217 0 0 0
23 1 4 0.053 1.5300238493965441 -3.0661758716776397 0.6425396121602494 0 0 0
24 1 4 0.053 2.7740783243508993 -1.6519913402418398 0.7933271700732285 0 0 0
25 1 4 0.053 -2.6369582775601437 -0.9590126267723331 -2.438207984946329 0 0 0
26 1 4 0.053 -2.992966059436924 -2.2223967452156344 -1.2233126575778208 0 0 0
27 1 4 0.053 -3.6110680838453577 -0.5881897927057089 -0.9666701782251095 0 0 0
28 1 5 0.2487 -2.5748434018564312 0.9157412509618021 -2.33467879615562 0 0 0
29 1 5 0.2487 -1.117401176471454 1.674540216420306 -2.6679314916607724 0 0 0
30 1 5 0.2487 -1.338530002221328 -2.928677440027234 1.866719024288126 0 0 0
31 1 5 0.2487 -2.3562527689431993 -2.7823121490482383 0.49202756080110177 0 0 0

Velocities

1 -0.0019488289905065142 -0.006959384639106595 -0.008270475882985585
2 -0.002751452550396971 0.001149001275888381 0.0027753579562058866
3 -0.003287729006164157 0.0012326187785462505 -4.646687230184863e-05
4 -0.0015997384142414682 -0.0021846978527340234 0.0011245621184295682
5 -0.008920409639614964 0.006458889257604179 0.004938009026218179
6 0.002764842206994294 0.0026473728110294153 0.008456516694654017
7 0.004070919392681921 0.0006358467996481462 -0.0029069367464986473
8 0.0015005151284828368 0.0014077321160655333 -0.003114786974545552
9 -0.002814054891100546 -0.0005007735950283737 -0.0020696713995751706
10 0.002710055612366673 -0.006549235105845385 -0.0005079686267733484
11 0.005964925329857252 -0.005561887378903422 0.00010643884802989078
12 1.7554039941215383e-06 0.003039853145803141 -0.0023638431974808013
13 0.003081064611563469 0.0023625005797951078 -0.00097857356977017
14 0.021018702380985615 0.01607227576928515 -0.0026339250058881308
15 0.012535584840780859 0.0037918314289987574 -0.02116117722090292
16 -0.012352886211310199 -0.014059637938337852 0.010994143594338373
17 -0.0079981302754866 0.009903726780683837 0.005344456809831759
18 -0.0077118527753667915 -0.02291996466234237 -0.00047634195254227956
19 -0.012877279541703398 0.004058606119368252 0.008045352384214806
20 -0.00034258045436701053 0.014070215269851286 0.002872856538809408
21 -0.027593624179774134 0.004358233074200192 -0.009555864693083348
22 0.006686912731818022 -0.0018485275768870513 -0.01985328682206124
23 0.01885949318402589 0.009196227977272705 0.020374839197602815
24 -0.004289927811955638 -0.0013316323835271479 -0.006353462106364519
25 -0.0115827127892553 0.0006966417972670394 0.020089008071958892
26 0.009319422300888154 -0.010513825249228613 0.009349601542176376
27 0.023421287587582034 0.005422327734156695 0.026042890190022358
28 -0.001764961445404737 0.02103783651740155 -0.00775558987448603
29 -0.0027070430530624647 0.016338406249035337 0.015770949217482042
30 0.020767941920493752 -0.017105630553258692 0.008808779262871215
31 -0.01485693981423913 -0.014233128354291441 -0.019231494660435503

Bonds

1 6 1 2
2 6 1 6
3 6 2 3
4 8 2 13
5 6 3 4
6 6 4 5
7 7 4 14
8 6 5 6
9 8 6 12
10 2 7 5
11 1 7 8
12 3 7 15
13 3 7 16
14 5 8 17
15 5 8 18
16 5 8 19
17 2 9 3
18 1 9 10
19 3 9 20
20 3 9 21
21 5 10 22
22 5 10 23
23 5 10 24
24 4 11 1
25 5 11 25
26 5 11 26
27 5 11 27
28 9 28 12
29 9 29 12
30 9 30 13
31 9 31 13

Angles

1 8 2 1 6
2 5 11 1 6
3 5 11 1 2
4 10 3 2 13
5 10 1 2 13
6 8 1 2 3
7 2 9 3 2
8 8 2 3 4
9 2 9 3 4
10 9 5 4 14
11 8 3 4 5
12 9 3 4 14
13 8 4 5 6
14 2 7 5 6
15 2 7 5 4
16 10 1 6 12
17 8 1 6 5
18 10 5 6 12
19 6 5 7 15
20 4 8 7 16
21 3 8 7 5
22 4 8 7 15
23 12 15 7 16
24 6 5 7 16
25 13 17 8 19
26 1 7 8 19
27 13 17 8 18
28 1 7 8 18
29 13 18 8 19
30 1 7 8 17
31 3 10 9 3
32 4 10 9 20
33 6 3 9 21
34 6 3 9 20
35 12 20 9 21
36 4 10 9 21
37 1 9 10 22
38 1 9 10 24
39 13 22 10 24
40 13 23 10 24
41 1 9 10 23
42 13 22 10 23
43 13 25 11 26
44 7 1 11 26
45 13 26 11 27
46 7 1 11 25
47 7 1 11 27
48 13 25 11 27
49 11 6 12 29
50 11 6 12 28
51 14 28 12 29
52 14 30 13 31
53 11 2 13 31
54 11 2 13 30

Dihedrals

1 11 11 1 6 12
2 13 2 1 6 12
3 13 6 1 2 13
4 11 11 1 2 13
5 8 2 1 6 5
6 6 11 1 2 3
7 6 11 1 6 5
8 8 3 2 1 6
9 14 1 2 13 30
10 8 1 2 3 4
11 14 3 2 13 31
12 14 3 2 13 30
13 14 1 2 13 31
14 7 9 3 2 1
15 13 4 3 2 13
16 10 9 3 4 14
17 8 2 3 4 5
18 9 2 3 4 14
19 12 9 3 2 13
20 7 9 3 4 5
21 8 3 4 5 6
22 7 7 5 4 3
23 12 7 5 6 12
24 13 4 5 6 12
25 10 7 5 4 14
26 9 6 5 4 14
27 7 7 5 6 1
28 14 1 6 12 28
29 8 1 6 5 4
30 14 5 6 12 28
31 14 1 6 12 29
32 14 5 6 12 29
33 4 15 7 5 4
34 4 15 7 5 6
35 3 8 7 5 4
36 3 8 7 5 6
37 4 16 7 5 4
38 4 16 7 5 6
39 2 16 7 8 18
40 2 15 7 8 19
41 1 5 7 8 17
42 2 16 7 8 17
43 2 15 7 8 18
44 1 5 7 8 19
45 2 16 7 8 19
46 2 15 7 8 17
47 1 5 7 8 18
48 3 10 9 3 4
49 4 20 9 3 2
50 4 21 9 3 4
51 3 10 9 3 2
52 4 20 9 3 4
53 4 21 9 3 2
54 2 21 9 10 23
55 1 3 9 10 22
56 2 20 9 10 22
57 2 21 9 10 22
58 1 3 9 10 24
59 2 20 9 10 24
60 2 21 9 10 24
61 1 3 9 10 23
62 2 20 9 10 23
63 5 26 11 1 6
64 5 27 11 1 2
65 5 25 11 1 6
66 5 26 11 1 2
67 5 27 11 1 6
68 5 25 11 1 2

Impropers

1 2 11 1 2 6
2 4 1 2 3 13
3 1 9 3 2 4
4 3 3 4 5 14
5 1 7 5 4 6
6 4 1 6 5 12
7 8 8 7 15 16
8 9 5 7 15 16
9 7 8 7 5 16
10 7 8 7 5 15
11 6 7 8 17 18
12 6 7 8 18 19
13 6 7 8 17 19
14 11 17 8 18 19
15 9 3 9 20 21
16 7 10 9 3 21
17 8 10 9 20 21
18 7 10 9 3 20
19 6 9 10 22 24
20 11 22 10 23 24
21 6 9 10 22 23
22 6 9 10 23 24
23 10 1 11 25 27
24 11 25 11 26 27
25 10 1 11 25 26
26 10 1 11 26 27
27 5 6 12 28 29
28 5 2 13 30 31
