LAMMPS data file via write_data, version 12 Jun 2025, timestep = 1000, units = real

31 atoms
6 atom types
31 bonds
9 bond types
54 angles
14 angle types
68 dihedrals
14 dihedral types
28 impropers
11 improper types

-5.619139836049822 4.249559190048153 xlo xhi
-6.381590062749677 4.357299740748051 ylo yhi
-1.9341587398418774 1.9345522878423875 zlo zhi
-0.22502451226023706 0.4003716342762215 0 xy xz yz

Masses

1 12.01115
2 12.01115
3 12.01115
4 1.00797
5 1.00797
6 14.0067

Pair Coeffs # lj/class2/coul/long

1 0.054 4.01
2 0.054 3.9
3 0.064 4.01
4 0.02 2.995
5 0.013 1.098
6 0.065 4.07

Bond Coeffs # class2

1 1.53 299.67 -501.77 679.81
2 1.501 321.902 -521.821 572.163
3 1.101 345 -691.89 844.6
4 1.501 321.902 -521.821 572.163
5 1.101 345 -691.89 844.6
6 1.417 470.836 -627.618 1327.63
7 1.0982 372.825 -803.453 894.317
8 1.3912 447.044 -784.535 886.167
9 1.0012 465.861 -1066.24 1496.56

Angle Coeffs # class2

1 110.77 41.453 -10.604 5.129
2 120.05 44.7148 -22.7352 0
3 108.4 43.9594 -8.3924 -9.3379
4 110.77 41.453 -10.604 5.129
5 120.05 44.7148 -22.7352 0
6 111 44.3234 -9.4454 0
7 111 44.3234 -9.4454 0
8 118.9 61.0226 -34.9931 0
9 117.94 35.1558 -12.4682 0
10 121.458 61.0647 -21.6172 0
11 111.873 40.8369 -15.6673 0
12 107.66 39.641 -12.921 -2.4318
13 107.66 39.641 -12.921 -2.4318
14 107.513 42.5182 -21.7566 -4.3372

BondBond Coeffs

1 3.3872 1.53 1.101
2 12.0676 1.501 1.417
3 0 1.53 1.501
4 3.3872 1.53 1.101
5 12.0676 1.501 1.417
6 2.9168 1.501 1.101
7 2.9168 1.501 1.101
8 68.2856 1.417 1.417
9 1.0795 1.417 1.0982
10 46.9513 1.417 1.3912
11 4.5393 1.3912 1.0012
12 5.3316 1.101 1.101
13 5.3316 1.101 1.101
14 -9.9447 1.0012 1.0012

BondAngle Coeffs

1 20.754 11.421 1.53 1.101
2 47.0579 31.0771 1.501 1.417
3 0 0 1.53 1.501
4 20.754 11.421 1.53 1.101
5 47.0579 31.0771 1.501 1.417
6 26.4608 11.7717 1.501 1.101
7 26.4608 11.7717 1.501 1.101
8 28.8708 28.8708 1.417 1.417
9 20.0033 24.2183 1.417 1.0982
10 39.404 73.6548 1.417 1.3912
11 38.5704 16.5524 1.3912 1.0012
12 18.103 18.103 1.101 1.101
13 18.103 18.103 1.101 1.101
14 17.1597 17.1597 1.0012 1.0012

Dihedral Coeffs # class2

1 -0.0228 0 0.028 0 -0.1863 0
2 -0.1432 0 0.0617 0 -0.1083 0
3 -0.2802 0 -0.0678 0 -0.0122 0
4 -0.2801 0 -0.0678 0 -0.0122 0
5 -0.2801 0 -0.0678 0 -0.0122 0
6 0 0 4.4072 0 0 0
7 0 0 4.4072 0 0 0
8 8.3667 0 1.1932 0 0 0
9 0 0 3.9661 0 0 0
10 0 0 1.559 0 0 0
11 0 0 3 0 0 0
12 0 0 3 0 0 0
13 0 0 5.3826 0 0 0
14 0 0 1.219 0 0 0

AngleAngleTorsion Coeffs

1 0 108.4 110.77
2 -12.564 110.77 110.77
3 0 108.4 120.05
4 -5.8888 111 120.05
5 -5.8888 111 120.05
6 -14.4097 120.05 118.9
7 -14.4097 120.05 118.9
8 0 118.9 118.9
9 -4.8141 118.9 117.94
10 4.4444 120.05 117.94
11 0 120.05 121.458
12 0 120.05 121.458
13 0 118.9 121.458
14 -7.1755 121.458 111.872

EndBondTorsion Coeffs

1 0 0 0 0 0 0 1.501 1.101
2 0.213 0.312 0.0777 0.213 0.312 0.0777 1.101 1.101
3 0 0 0 0 0 0 1.53 1.417
4 1.3997 0.7756 0 -0.5835 1.122 0.3978 1.101 1.417
5 1.3997 0.7756 0 -0.5835 1.122 0.3978 1.101 1.417
6 0 0.2421 0 0 -0.6918 0 1.501 1.417
7 0 0.2421 0 0 -0.6918 0 1.501 1.417
8 -0.1185 6.3204 0 -0.1185 6.3204 0 1.417 1.417
9 0 -6.8958 0 0 -0.4669 0 1.417 1.0982
10 0 -1.797 0 0 -0.4879 0 1.501 1.0982
11 0 0 0 0 0 0 1.501 1.3912
12 0 0 0 0 0 0 1.501 1.3912
13 0 -6.5404 0 0 -7.3477 0 1.417 1.3912
14 0 -3.7281 0 0 0.2849 0 1.417 1.0012

MiddleBondTorsion Coeffs

1 0 0 0 1.53
2 -14.261 -0.5322 -0.4864 1.53
3 0 0 0 1.501
4 -5.5679 1.4083 0.301 1.501
5 -5.5679 1.4083 0.301 1.501
6 0 9.1792 0 1.417
7 0 9.1792 0 1.417
8 27.5989 -2.312 0 1.417
9 0 -1.1521 0 1.417
10 0 3.9421 0 1.417
11 0 0 0 1.417
12 0 0 0 1.417
13 0 -0.5693 0 1.417
14 0 3.2085 0 1.3912

BondBond13 Coeffs

1 0 1.501 1.101
2 0 1.101 1.101
3 0 1.53 1.417
4 -3.4826 1.101 1.417
5 -3.4826 1.101 1.417
6 2.5085 1.501 1.417
7 2.5085 1.501 1.417
8 53 1.417 1.417
9 -6.2741 1.417 1.0982
10 0.8743 1.501 1.0982
11 0 1.501 1.3912
12 0 1.501 1.3912
13 -9.7999 1.417 1.3912
14 4.2366 1.417 1.0012

AngleTorsion Coeffs

1 0 0 0 0 0 0 108.4 110.77
2 -0.8085 0.5569 -0.2466 -0.8085 0.5569 -0.2466 110.77 110.77
3 0 0 0 0 0 0 108.4 120.05
4 4.6266 0.1632 0.0461 0.2251 0.6548 0.1237 111 120.05
5 4.6266 0.1632 0.0461 0.2251 0.6548 0.1237 111 120.05
6 0 -4.4683 0 0 3.8987 0 120.05 118.9
7 0 -4.4683 0 0 3.8987 0 120.05 118.9
8 1.9767 1.0239 0 1.9767 1.0239 0 118.9 118.9
9 0 2.5014 0 0 2.7147 0 118.9 117.94
10 0 -0.1242 0 0 3.4601 0 120.05 117.94
11 0 0 0 0 0 0 120.05 121.458
12 0 0 0 0 0 0 120.05 121.458
13 0 9.0901 0 0 -6.0882 0 118.9 121.458
14 0 1.2616 0 0 0.7744 0 121.458 111.872

Improper Coeffs # class2

1 7.8153 0
2 7.8153 0
3 4.8912 0
4 10.7855 0
5 0 0
6 0 0
7 0 0
8 0 0
9 0 0
10 0 0
11 0 0

AngleAngle Coeffs

1 0 0 0 120.05 118.9 120.05
2 0 0 0 120.05 118.9 120.05
3 0 0 0 118.9 117.94 117.94
4 0 0 0 118.9 121.458 121.458
5 0 0 0 111.872 107.513 111.872
6 0.2738 -0.4825 0.2738 110.77 110.77 107.66
7 2.0403 -1.8202 1.0827 108.4 110.77 111
8 0.2738 -0.4825 0.2738 110.77 110.77 107.66
9 2.3794 3.0118 2.3794 111 111 107.66
10 2.3794 3.0118 2.3794 111 111 107.66
11 -0.3157 -0.3157 -0.3157 107.66 107.66 107.66

Atoms # full

1 1 3 0 -1.7300254640809491 0.24352321854225867 -0.24477155778651394 0 0 0
2 1 3 0.0827 -1.116074176702626 -1.006778385246843 0.09569223859950848 0 0 0
3 1 3 0 0.28321517329461265 -1.2359990596389752 0.24408689402080186 0 0 0
4 1 3 -0.1268 1.0888254512790922 -0.07450629147955201 0.13244341568818396 0 0 0
5 1 3 0 0.5489661917174242 1.1856169692664853 -0.07119661967545943 0 0 0
6 1 3 0.0827 -0.8226697809592975 1.3167882979732104 -0.22655513801907934 0 0 0
7 1 1 -0.106 1.507607468554344 2.3478178832633567 -0.04293978215078087 0 0 0
8 1 2 -0.159 2.9092463532717954 2.0979540673656505 -0.5361843018594297 0 0 0
9 1 1 -0.106 1.0500081280835785 -2.5340702142371963 0.48595264599570087 0 0 0
10 1 2 -0.159 0.3548661217582181 -3.8901257478284434 0.7998488484529844 0 0 0
11 1 2 -0.159 -3.2948955917816938 0.47692398549263704 -0.3599146760305263 0 0 0
12 1 6 -0.5800999999999999 -1.349425977339041 2.6477058380914027 -0.4189838695006076 0 0 0
13 1 6 -0.5800999999999999 -2.0902213860067653 -2.1736520535085164 0.15664561195504523 0 0 0
14 1 4 0.1268 2.156056204722063 -0.04386707679545854 0.24760045603488323 0 0 0
15 1 4 0.053 1.0131602588034205 3.1648880594630437 -0.5981755877764019 0 0 0
16 1 4 0.053 1.543026480308641 2.6213927326636632 1.014886668386602 0 0 0
17 1 4 0.053 3.514357547210862 2.9878314536270967 -0.5617327420002827 0 0 0
18 1 4 0.053 3.487968451192984 1.434395620829978 0.10905111423107772 0 0 0
19 1 4 0.053 3.002454814399476 1.6738211395402338 -1.549404617356256 0 0 0
20 1 4 0.053 1.7610525329716422 -2.677817407867167 -0.37751643710806393 0 0 0
21 1 4 0.053 1.6996777337182802 -2.194624043542299 1.3652770490031385 0 0 0
22 1 4 0.053 1.1437216241880543 -4.5320648965902635 1.1607794555507096 0 0 0
23 1 4 0.053 -0.34302232571744184 -3.6259012455032047 1.5616670350688258 0 0 0
24 1 4 0.053 -0.1590570193058678 -4.353309475826618 -0.06334726805493363 0 0 0
25 1 4 0.053 -3.7321521134738207 0.17122836532761632 0.6036451362785364 0 0 0
26 1 4 0.053 -3.5509411914813183 1.515601275037585 -0.5902147606978034 0 0 0
27 1 4 0.053 -3.7472440919778967 -0.10891817290113881 -1.162934930484655 0 0 0
28 1 5 0.2487 -2.323988003563392 2.8412241632511375 -0.2874901093365536 0 0 0
29 1 5 0.2487 -0.913518158749163 3.451732749896154 0.02711665878986791 0 0 0
30 1 5 0.2487 -1.5976552305038734 -2.9648883716385668 -0.1124631950671684 0 0 0
31 1 5 0.2487 -2.8071003816445237 -2.027175232255363 -0.4299909434003797 0 0 0

Velocities

1 0.017626823662961217 -0.0024029278361843297 -3.6225479311179146e-05
2 -0.009855453266582066 -0.0004969261767250585 0.0033365991218968242
3 -0.009885590367700344 0.004142321042295564 -0.007639070754774581
4 0.0027312331919543 0.0008332665750349415 0.002017096579950487
5 -0.008159448057353105 -0.007738573417367604 -0.0024871291095124033
6 0.001021732175774306 0.004351200897464381 0.004904353298487612
7 0.0036166230448568806 0.0012597767972083109 -0.0017851388877525999
8 0.0023370042150816944 -0.003719377170680756 -0.004979936180572677
9 0.003395195318565539 0.001249712620482267 0.0007957103772680539
10 0.0038659622271812917 0.0013766200052973188 -0.000123943329309353
11 -0.007515662608754133 0.0033125019696734572 0.0014649255589803698
12 -0.0010452783245017822 -0.0005214507651795451 0.009029809157744014
13 0.006620721399069521 0.0029246916770979594 -0.0036025561718583004
14 -0.006256492453155597 0.012309669810848196 -0.006808591964749456
15 -0.0044555552706213525 -0.01672391520443307 -0.005378412642354452
16 -0.01805300520843616 -0.004731339700437678 0.0010065890507626018
17 -0.005165544909583867 0.0019717441935647537 -0.011663746356756885
18 -0.010904680799224535 -0.005239631960317083 -0.004018715818830551
19 0.006898713458838444 0.008489977481971216 -0.0067157086413894155
20 0.010123323500066731 -0.011252405438674382 -0.003750941427217884
21 -0.006961105681581451 -0.017069457502463935 -0.005189074538732346
22 -0.01714313353607779 -0.013788108749551258 -0.00615887778735541
23 -0.010970810450241926 -0.015226183159098329 0.01996630600819423
24 -0.0016590167917207687 0.004026790517842409 0.004438561065283834
25 -0.019330095726972304 0.004500211161683538 0.004715967665070252
26 -0.02559707591345596 0.005654687581996997 0.019328433101203496
27 -0.015378485823504326 0.008702328164598493 0.00033608223848654575
28 0.029503498564100884 -0.017092301724509484 -0.014280692632458951
29 0.012065534391053186 -0.03707577623162159 -0.012204275569793295
30 0.029605234106907574 0.0006014803337566576 -0.0026529140224295826
31 -0.014007276557038807 0.032717464958991985 0.00762634105176152

Bonds

1 6 1 2
2 6 1 6
3 6 2 3
4 8 2 13
5 6 3 4
6 6 4 5
7 7 4 14
8 6 5 6
9 8 6 12
10 2 7 5
11 1 7 8
12 3 7 15
13 3 7 16
14 5 8 17
15 5 8 18
16 5 8 19
17 2 9 3
18 1 9 10
19 3 9 20
20 3 9 21
21 5 10 22
22 5 10 23
23 5 10 24
24 4 11 1
25 5 11 25
26 5 11 26
27 5 11 27
28 9 28 12
29 9 29 12
30 9 30 13
31 9 31 13

Angles

1 8 2 1 6
2 5 11 1 6
3 5 11 1 2
4 10 3 2 13
5 10 1 2 13
6 8 1 2 3
7 2 9 3 2
8 8 2 3 4
9 2 9 3 4
10 9 5 4 14
11 8 3 4 5
12 9 3 4 14
13 8 4 5 6
14 2 7 5 6
15 2 7 5 4
16 10 1 6 12
17 8 1 6 5
18 10 5 6 12
19 6 5 7 15
20 4 8 7 16
21 3 8 7 5
22 4 8 7 15
23 12 15 7 16
24 6 5 7 16
25 13 17 8 19
26 1 7 8 19
27 13 17 8 18
28 1 7 8 18
29 13 18 8 19
30 1 7 8 17
31 3 10 9 3
32 4 10 9 20
33 6 3 9 21
34 6 3 9 20
35 12 20 9 21
36 4 10 9 21
37 1 9 10 22
38 1 9 10 24
39 13 22 10 24
40 13 23 10 24
41 1 9 10 23
42 13 22 10 23
43 13 25 11 26
44 7 1 11 26
45 13 26 11 27
46 7 1 11 25
47 7 1 11 27
48 13 25 11 27
49 11 6 12 29
50 11 6 12 28
51 14 28 12 29
52 14 30 13 31
53 11 2 13 31
54 11 2 13 30

Dihedrals

1 11 11 1 6 12
2 13 2 1 6 12
3 13 6 1 2 13
4 11 11 1 2 13
5 8 2 1 6 5
6 6 11 1 2 3
7 6 11 1 6 5
8 8 3 2 1 6
9 14 1 2 13 30
10 8 1 2 3 4
11 14 3 2 13 31
12 14 3 2 13 30
13 14 1 2 13 31
14 7 9 3 2 1
15 13 4 3 2 13
16 10 9 3 4 14
17 8 2 3 4 5
18 9 2 3 4 14
19 12 9 3 2 13
20 7 9 3 4 5
21 8 3 4 5 6
22 7 7 5 4 3
23 12 7 5 6 12
24 13 4 5 6 12
25 10 7 5 4 14
26 9 6 5 4 14
27 7 7 5 6 1
28 14 1 6 12 28
29 8 1 6 5 4
30 14 5 6 12 28
31 14 1 6 12 29
32 14 5 6 12 29
33 4 15 7 5 4
34 4 15 7 5 6
35 3 8 7 5 4
36 3 8 7 5 6
37 4 16 7 5 4
38 4 16 7 5 6
39 2 16 7 8 18
40 2 15 7 8 19
41 1 5 7 8 17
42 2 16 7 8 17
43 2 15 7 8 18
44 1 5 7 8 19
45 2 16 7 8 19
46 2 15 7 8 17
47 1 5 7 8 18
48 3 10 9 3 4
49 4 20 9 3 2
50 4 21 9 3 4
51 3 10 9 3 2
52 4 20 9 3 4
53 4 21 9 3 2
54 2 21 9 10 23
55 1 3 9 10 22
56 2 20 9 10 22
57 2 21 9 10 22
58 1 3 9 10 24
59 2 20 9 10 24
60 2 21 9 10 24
61 1 3 9 10 23
62 2 20 9 10 23
63 5 26 11 1 6
64 5 27 11 1 2
65 5 25 11 1 6
66 5 26 11 1 2
67 5 27 11 1 6
68 5 25 11 1 2

Impropers

1 2 11 1 2 6
2 4 1 2 3 13
3 1 9 3 2 4
4 3 3 4 5 14
5 1 7 5 4 6
6 4 1 6 5 12
7 8 8 7 15 16
8 9 5 7 15 16
9 7 8 7 5 16
10 7 8 7 5 15
11 6 7 8 17 18
12 6 7 8 18 19
13 6 7 8 17 19
14 11 17 8 18 19
15 9 3 9 20 21
16 7 10 9 3 21
17 8 10 9 20 21
18 7 10 9 3 20
19 6 9 10 22 24
20 11 22 10 23 24
21 6 9 10 22 23
22 6 9 10 23 24
23 10 1 11 25 27
24 11 25 11 26 27
25 10 1 11 25 26
26 10 1 11 26 27
27 5 6 12 28 29
28 5 2 13 30 31
