LAMMPS data file via write_data, version 12 Jun 2025, timestep = 7000, units = real

31 atoms
6 atom types
31 bonds
9 bond types
54 angles
14 angle types
68 dihedrals
14 dihedral types
28 impropers
11 improper types

-4.350017591233338 2.980436945228668 xlo xhi
-5.503403818959024 3.4791134969523134 ylo yhi
-2.2690140086827952 2.269407556688325 zlo zhi
-0.18822118625546005 0.46967975797606487 0 xy xz yz

Masses

1 12.01115
2 12.01115
3 12.01115
4 1.00797
5 1.00797
6 14.0067

Pair Coeffs # lj/class2/coul/long

1 0.054 4.01
2 0.054 3.9
3 0.064 4.01
4 0.02 2.995
5 0.013 1.098
6 0.065 4.07

Bond Coeffs # class2

1 1.53 299.67 -501.77 679.81
2 1.501 321.902 -521.821 572.163
3 1.101 345 -691.89 844.6
4 1.501 321.902 -521.821 572.163
5 1.101 345 -691.89 844.6
6 1.417 470.836 -627.618 1327.63
7 1.0982 372.825 -803.453 894.317
8 1.3912 447.044 -784.535 886.167
9 1.0012 465.861 -1066.24 1496.56

Angle Coeffs # class2

1 110.77 41.453 -10.604 5.129
2 120.05 44.7148 -22.7352 0
3 108.4 43.9594 -8.3924 -9.3379
4 110.77 41.453 -10.604 5.129
5 120.05 44.7148 -22.7352 0
6 111 44.3234 -9.4454 0
7 111 44.3234 -9.4454 0
8 118.9 61.0226 -34.9931 0
9 117.94 35.1558 -12.4682 0
10 121.458 61.0647 -21.6172 0
11 111.873 40.8369 -15.6673 0
12 107.66 39.641 -12.921 -2.4318
13 107.66 39.641 -12.921 -2.4318
14 107.513 42.5182 -21.7566 -4.3372

BondBond Coeffs

1 3.3872 1.53 1.101
2 12.0676 1.501 1.417
3 0 1.53 1.501
4 3.3872 1.53 1.101
5 12.0676 1.501 1.417
6 2.9168 1.501 1.101
7 2.9168 1.501 1.101
8 68.2856 1.417 1.417
9 1.0795 1.417 1.0982
10 46.9513 1.417 1.3912
11 4.5393 1.3912 1.0012
12 5.3316 1.101 1.101
13 5.3316 1.101 1.101
14 -9.9447 1.0012 1.0012

BondAngle Coeffs

1 20.754 11.421 1.53 1.101
2 47.0579 31.0771 1.501 1.417
3 0 0 1.53 1.501
4 20.754 11.421 1.53 1.101
5 47.0579 31.0771 1.501 1.417
6 26.4608 11.7717 1.501 1.101
7 26.4608 11.7717 1.501 1.101
8 28.8708 28.8708 1.417 1.417
9 20.0033 24.2183 1.417 1.0982
10 39.404 73.6548 1.417 1.3912
11 38.5704 16.5524 1.3912 1.0012
12 18.103 18.103 1.101 1.101
13 18.103 18.103 1.101 1.101
14 17.1597 17.1597 1.0012 1.0012

Dihedral Coeffs # class2

1 -0.0228 0 0.028 0 -0.1863 0
2 -0.1432 0 0.0617 0 -0.1083 0
3 -0.2802 0 -0.0678 0 -0.0122 0
4 -0.2801 0 -0.0678 0 -0.0122 0
5 -0.2801 0 -0.0678 0 -0.0122 0
6 0 0 4.4072 0 0 0
7 0 0 4.4072 0 0 0
8 8.3667 0 1.1932 0 0 0
9 0 0 3.9661 0 0 0
10 0 0 1.559 0 0 0
11 0 0 3 0 0 0
12 0 0 3 0 0 0
13 0 0 5.3826 0 0 0
14 0 0 1.219 0 0 0

AngleAngleTorsion Coeffs

1 0 108.4 110.77
2 -12.564 110.77 110.77
3 0 108.4 120.05
4 -5.8888 111 120.05
5 -5.8888 111 120.05
6 -14.4097 120.05 118.9
7 -14.4097 120.05 118.9
8 0 118.9 118.9
9 -4.8141 118.9 117.94
10 4.4444 120.05 117.94
11 0 120.05 121.458
12 0 120.05 121.458
13 0 118.9 121.458
14 -7.1755 121.458 111.872

EndBondTorsion Coeffs

1 0 0 0 0 0 0 1.501 1.101
2 0.213 0.312 0.0777 0.213 0.312 0.0777 1.101 1.101
3 0 0 0 0 0 0 1.53 1.417
4 1.3997 0.7756 0 -0.5835 1.122 0.3978 1.101 1.417
5 1.3997 0.7756 0 -0.5835 1.122 0.3978 1.101 1.417
6 0 0.2421 0 0 -0.6918 0 1.501 1.417
7 0 0.2421 0 0 -0.6918 0 1.501 1.417
8 -0.1185 6.3204 0 -0.1185 6.3204 0 1.417 1.417
9 0 -6.8958 0 0 -0.4669 0 1.417 1.0982
10 0 -1.797 0 0 -0.4879 0 1.501 1.0982
11 0 0 0 0 0 0 1.501 1.3912
12 0 0 0 0 0 0 1.501 1.3912
13 0 -6.5404 0 0 -7.3477 0 1.417 1.3912
14 0 -3.7281 0 0 0.2849 0 1.417 1.0012

MiddleBondTorsion Coeffs

1 0 0 0 1.53
2 -14.261 -0.5322 -0.4864 1.53
3 0 0 0 1.501
4 -5.5679 1.4083 0.301 1.501
5 -5.5679 1.4083 0.301 1.501
6 0 9.1792 0 1.417
7 0 9.1792 0 1.417
8 27.5989 -2.312 0 1.417
9 0 -1.1521 0 1.417
10 0 3.9421 0 1.417
11 0 0 0 1.417
12 0 0 0 1.417
13 0 -0.5693 0 1.417
14 0 3.2085 0 1.3912

BondBond13 Coeffs

1 0 1.501 1.101
2 0 1.101 1.101
3 0 1.53 1.417
4 -3.4826 1.101 1.417
5 -3.4826 1.101 1.417
6 2.5085 1.501 1.417
7 2.5085 1.501 1.417
8 53 1.417 1.417
9 -6.2741 1.417 1.0982
10 0.8743 1.501 1.0982
11 0 1.501 1.3912
12 0 1.501 1.3912
13 -9.7999 1.417 1.3912
14 4.2366 1.417 1.0012

AngleTorsion Coeffs

1 0 0 0 0 0 0 108.4 110.77
2 -0.8085 0.5569 -0.2466 -0.8085 0.5569 -0.2466 110.77 110.77
3 0 0 0 0 0 0 108.4 120.05
4 4.6266 0.1632 0.0461 0.2251 0.6548 0.1237 111 120.05
5 4.6266 0.1632 0.0461 0.2251 0.6548 0.1237 111 120.05
6 0 -4.4683 0 0 3.8987 0 120.05 118.9
7 0 -4.4683 0 0 3.8987 0 120.05 118.9
8 1.9767 1.0239 0 1.9767 1.0239 0 118.9 118.9
9 0 2.5014 0 0 2.7147 0 118.9 117.94
10 0 -0.1242 0 0 3.4601 0 120.05 117.94
11 0 0 0 0 0 0 120.05 121.458
12 0 0 0 0 0 0 120.05 121.458
13 0 9.0901 0 0 -6.0882 0 118.9 121.458
14 0 1.2616 0 0 0.7744 0 121.458 111.872

Improper Coeffs # class2

1 7.8153 0
2 7.8153 0
3 4.8912 0
4 10.7855 0
5 0 0
6 0 0
7 0 0
8 0 0
9 0 0
10 0 0
11 0 0

AngleAngle Coeffs

1 0 0 0 120.05 118.9 120.05
2 0 0 0 120.05 118.9 120.05
3 0 0 0 118.9 117.94 117.94
4 0 0 0 118.9 121.458 121.458
5 0 0 0 111.872 107.513 111.872
6 0.2738 -0.4825 0.2738 110.77 110.77 107.66
7 2.0403 -1.8202 1.0827 108.4 110.77 111
8 0.2738 -0.4825 0.2738 110.77 110.77 107.66
9 2.3794 3.0118 2.3794 111 111 107.66
10 2.3794 3.0118 2.3794 111 111 107.66
11 -0.3157 -0.3157 -0.3157 107.66 107.66 107.66

Atoms # full

1 1 3 0 -1.6797809605901395 -0.20914814771257895 -0.6331301402925851 0 0 0
2 1 3 0.0827 -1.1589529369312355 -1.4029805178699846 -0.04455193636393906 0 0 0
3 1 3 0 0.09864357429581361 -1.4710957270908924 0.5088185883091461 0 0 0
4 1 3 -0.1268 0.7886864041037613 -0.264953681223818 0.6864301458021478 0 0 0
5 1 3 0 0.15155473952177445 0.9757648842065745 0.3320938815770007 0 0 0
6 1 3 0.0827 -1.0274750037285934 0.9775129699294025 -0.38153690942182084 0 0 0
7 1 1 -0.106 0.8888347824042873 2.2312605772208096 0.7775243138444847 0 0 0
8 1 2 -0.159 1.839682141303049 2.797241012392803 -0.33344326312867834 0 0 0
9 1 1 -0.106 0.7580839547954188 -2.8251374817226376 0.8207226379441841 0 0 0
10 1 2 -0.159 2.282142616467133 -2.82434081770241 1.190242429106477 0 0 0
11 1 2 -0.159 -2.909566803124531 -0.26039296510565 -1.583461614675561 0 0 0
12 1 6 -0.5800999999999999 -1.6398600279438846 2.229510496728591 -0.7597396497227 0 0 0
13 1 6 -0.5800999999999999 -1.8917264556577962 -2.630387345369913 -0.25251055672442124 0 0 0
14 1 4 0.1268 1.7891032244449399 -0.19190772865189043 1.1517439913467156 0 0 0
15 1 4 0.053 0.15842850380799334 2.8757738861815945 1.182268044039493 0 0 0
16 1 4 0.053 1.5371810989514927 1.8922655253557537 1.601275725239013 0 0 0
17 1 4 0.053 2.601653270205831 -5.380447780223485 0.07248141185473678 0 1 0
18 1 4 0.053 2.4670231327832433 2.081135483394519 -0.8557189085231234 0 0 0
19 1 4 0.053 1.289424659048617 3.293361034948118 -1.1274099834356717 0 0 0
20 1 4 0.053 0.1457066780654106 -3.4041711994905044 1.4928747641131404 0 0 0
21 1 4 0.053 0.7671674159895936 -3.420586422784812 -0.08313104664083193 0 0 0
22 1 4 0.053 2.5790643291107704 -3.8393065198479555 1.5441640885195778 0 0 0
23 1 4 0.053 2.9123270603129185 -2.649739185487936 0.3138192307506791 0 0 0
24 1 4 0.053 2.6038967239062085 -2.073850159099201 1.972612031017686 0 0 0
25 1 4 0.053 -3.1210266870835905 0.6298731425631336 -2.177333236363328 0 0 0
26 1 4 0.053 -2.7604335942715332 -1.1454147547613607 -2.2242797816646793 0 0 0
27 1 4 0.053 -3.7617429480297555 -0.4045076636818905 -0.938439074948151 0 0 0
28 1 5 0.2487 -2.317615552039293 2.0864184486419637 -1.4377422813816596 0 0 0
29 1 5 0.2487 -0.9377041286440333 2.794958201829248 -1.1957037280398262 0 0 0
30 1 5 0.2487 -1.3175927281114213 -3.469404811441259 -0.012980504964721362 0 0 0
31 1 5 0.2487 -2.3650733062254217 -2.654538252985035 -1.1758808405687684 0 0 0

Velocities

1 -0.0007803943097092175 0.005371640787499629 0.0020748090427400536
2 0.00895039688084832 -0.0014679536020111947 -0.0037505255637323436
3 -0.0046268394340089995 -0.0033518806542154034 0.004881260446581925
4 0.0031389991097300553 0.0036600307970758297 -0.0023749709262931612
5 -0.0017944279889250592 -0.002057127048559261 -0.0012896147396497133
6 -0.002265935937415937 0.0007143562778262417 0.0020877816492488473
7 5.543180279930688e-06 0.002997326798802264 -0.005117437531851741
8 -0.006005687982125062 0.004238102068714631 0.007318797115150497
9 2.978052371962682e-05 -0.0013152199470093937 -0.00022275838358694932
10 -6.47009130570031e-06 -0.010061924538468573 0.0072969985690051
11 -0.0029777855552962887 -0.001919834140070456 -0.0014887128743308778
12 0.0058806837743245344 0.002284725891984585 -0.0014864670103355768
13 0.0011470712777887648 -0.006095256577235217 0.00401594947070793
14 0.012298917119024937 -0.009234136060036051 0.007325326987359283
15 -0.009612717707972254 -0.007327790371547012 -0.008853701981282656
16 0.01681895587179947 0.004662447092918037 0.010342091376422237
17 0.01076393672133197 -0.006854143352273321 -0.0029350742548924975
18 -0.007233071176464621 -0.0023154655134883747 -0.006266985974529723
19 0.0036130012463784136 0.0012322806903574894 -0.022110477364571612
20 -0.01763314311229968 0.032384994210740856 -0.009717098693324048
21 -0.010379719234521538 0.012827089890404056 -0.030118277336808854
22 0.0018112177811883013 -0.0028806392474575063 -0.02572275848154269
23 -0.019471825679379086 -0.0037950335447881956 0.0015799636672313888
24 0.0053719645655521285 0.03082054735191494 -0.02132744875578613
25 0.01287747669816192 0.0038264701741792654 -0.02996350330579944
26 0.019270136547695153 0.014536543943257166 -0.0014670263781472743
27 -0.027819310835933742 0.0052716423368531105 -0.018114980299012
28 -0.018311188651097755 0.021878019552085383 -0.003945230852296011
29 0.023404363450496526 -0.005069943701599197 0.01433338067253939
30 -0.01530820819559337 -0.018240315482639807 0.010057656235193307
31 -0.002655083330967188 0.019270571451709823 -0.010443700787831816

Bonds

1 6 1 2
2 6 1 6
3 6 2 3
4 8 2 13
5 6 3 4
6 6 4 5
7 7 4 14
8 6 5 6
9 8 6 12
10 2 7 5
11 1 7 8
12 3 7 15
13 3 7 16
14 5 8 17
15 5 8 18
16 5 8 19
17 2 9 3
18 1 9 10
19 3 9 20
20 3 9 21
21 5 10 22
22 5 10 23
23 5 10 24
24 4 11 1
25 5 11 25
26 5 11 26
27 5 11 27
28 9 28 12
29 9 29 12
30 9 30 13
31 9 31 13

Angles

1 8 2 1 6
2 5 11 1 6
3 5 11 1 2
4 10 3 2 13
5 10 1 2 13
6 8 1 2 3
7 2 9 3 2
8 8 2 3 4
9 2 9 3 4
10 9 5 4 14
11 8 3 4 5
12 9 3 4 14
13 8 4 5 6
14 2 7 5 6
15 2 7 5 4
16 10 1 6 12
17 8 1 6 5
18 10 5 6 12
19 6 5 7 15
20 4 8 7 16
21 3 8 7 5
22 4 8 7 15
23 12 15 7 16
24 6 5 7 16
25 13 17 8 19
26 1 7 8 19
27 13 17 8 18
28 1 7 8 18
29 13 18 8 19
30 1 7 8 17
31 3 10 9 3
32 4 10 9 20
33 6 3 9 21
34 6 3 9 20
35 12 20 9 21
36 4 10 9 21
37 1 9 10 22
38 1 9 10 24
39 13 22 10 24
40 13 23 10 24
41 1 9 10 23
42 13 22 10 23
43 13 25 11 26
44 7 1 11 26
45 13 26 11 27
46 7 1 11 25
47 7 1 11 27
48 13 25 11 27
49 11 6 12 29
50 11 6 12 28
51 14 28 12 29
52 14 30 13 31
53 11 2 13 31
54 11 2 13 30

Dihedrals

1 11 11 1 6 12
2 13 2 1 6 12
3 13 6 1 2 13
4 11 11 1 2 13
5 8 2 1 6 5
6 6 11 1 2 3
7 6 11 1 6 5
8 8 3 2 1 6
9 14 1 2 13 30
10 8 1 2 3 4
11 14 3 2 13 31
12 14 3 2 13 30
13 14 1 2 13 31
14 7 9 3 2 1
15 13 4 3 2 13
16 10 9 3 4 14
17 8 2 3 4 5
18 9 2 3 4 14
19 12 9 3 2 13
20 7 9 3 4 5
21 8 3 4 5 6
22 7 7 5 4 3
23 12 7 5 6 12
24 13 4 5 6 12
25 10 7 5 4 14
26 9 6 5 4 14
27 7 7 5 6 1
28 14 1 6 12 28
29 8 1 6 5 4
30 14 5 6 12 28
31 14 1 6 12 29
32 14 5 6 12 29
33 4 15 7 5 4
34 4 15 7 5 6
35 3 8 7 5 4
36 3 8 7 5 6
37 4 16 7 5 4
38 4 16 7 5 6
39 2 16 7 8 18
40 2 15 7 8 19
41 1 5 7 8 17
42 2 16 7 8 17
43 2 15 7 8 18
44 1 5 7 8 19
45 2 16 7 8 19
46 2 15 7 8 17
47 1 5 7 8 18
48 3 10 9 3 4
49 4 20 9 3 2
50 4 21 9 3 4
51 3 10 9 3 2
52 4 20 9 3 4
53 4 21 9 3 2
54 2 21 9 10 23
55 1 3 9 10 22
56 2 20 9 10 22
57 2 21 9 10 22
58 1 3 9 10 24
59 2 20 9 10 24
60 2 21 9 10 24
61 1 3 9 10 23
62 2 20 9 10 23
63 5 26 11 1 6
64 5 27 11 1 2
65 5 25 11 1 6
66 5 26 11 1 2
67 5 27 11 1 6
68 5 25 11 1 2

Impropers

1 2 11 1 2 6
2 4 1 2 3 13
3 1 9 3 2 4
4 3 3 4 5 14
5 1 7 5 4 6
6 4 1 6 5 12
7 8 8 7 15 16
8 9 5 7 15 16
9 7 8 7 5 16
10 7 8 7 5 15
11 6 7 8 17 18
12 6 7 8 18 19
13 6 7 8 17 19
14 11 17 8 18 19
15 9 3 9 20 21
16 7 10 9 3 21
17 8 10 9 20 21
18 7 10 9 3 20
19 6 9 10 22 24
20 11 22 10 23 24
21 6 9 10 22 23
22 6 9 10 23 24
23 10 1 11 25 27
24 11 25 11 26 27
25 10 1 11 25 26
26 10 1 11 26 27
27 5 6 12 28 29
28 5 2 13 30 31
