LAMMPS data file via write_data, version 12 Jun 2025, timestep = 2000, units = real

31 atoms
6 atom types
31 bonds
9 bond types
54 angles
14 angle types
68 dihedrals
14 dihedral types
28 impropers
11 improper types

-5.255860603607005 3.886279957604381 xlo xhi
-5.854835420678263 3.8305450986757497 ylo yhi
-2.1633217669266083 2.163715314928017 zlo zhi
-0.20294910063351804 0.44780364716796806 0 xy xz yz

Masses

1 12.01115
2 12.01115
3 12.01115
4 1.00797
5 1.00797
6 14.0067

Pair Coeffs # lj/class2/coul/long

1 0.054 4.01
2 0.054 3.9
3 0.064 4.01
4 0.02 2.995
5 0.013 1.098
6 0.065 4.07

Bond Coeffs # class2

1 1.53 299.67 -501.77 679.81
2 1.501 321.902 -521.821 572.163
3 1.101 345 -691.89 844.6
4 1.501 321.902 -521.821 572.163
5 1.101 345 -691.89 844.6
6 1.417 470.836 -627.618 1327.63
7 1.0982 372.825 -803.453 894.317
8 1.3912 447.044 -784.535 886.167
9 1.0012 465.861 -1066.24 1496.56

Angle Coeffs # class2

1 110.77 41.453 -10.604 5.129
2 120.05 44.7148 -22.7352 0
3 108.4 43.9594 -8.3924 -9.3379
4 110.77 41.453 -10.604 5.129
5 120.05 44.7148 -22.7352 0
6 111 44.3234 -9.4454 0
7 111 44.3234 -9.4454 0
8 118.9 61.0226 -34.9931 0
9 117.94 35.1558 -12.4682 0
10 121.458 61.0647 -21.6172 0
11 111.873 40.8369 -15.6673 0
12 107.66 39.641 -12.921 -2.4318
13 107.66 39.641 -12.921 -2.4318
14 107.513 42.5182 -21.7566 -4.3372

BondBond Coeffs

1 3.3872 1.53 1.101
2 12.0676 1.501 1.417
3 0 1.53 1.501
4 3.3872 1.53 1.101
5 12.0676 1.501 1.417
6 2.9168 1.501 1.101
7 2.9168 1.501 1.101
8 68.2856 1.417 1.417
9 1.0795 1.417 1.0982
10 46.9513 1.417 1.3912
11 4.5393 1.3912 1.0012
12 5.3316 1.101 1.101
13 5.3316 1.101 1.101
14 -9.9447 1.0012 1.0012

BondAngle Coeffs

1 20.754 11.421 1.53 1.101
2 47.0579 31.0771 1.501 1.417
3 0 0 1.53 1.501
4 20.754 11.421 1.53 1.101
5 47.0579 31.0771 1.501 1.417
6 26.4608 11.7717 1.501 1.101
7 26.4608 11.7717 1.501 1.101
8 28.8708 28.8708 1.417 1.417
9 20.0033 24.2183 1.417 1.0982
10 39.404 73.6548 1.417 1.3912
11 38.5704 16.5524 1.3912 1.0012
12 18.103 18.103 1.101 1.101
13 18.103 18.103 1.101 1.101
14 17.1597 17.1597 1.0012 1.0012

Dihedral Coeffs # class2

1 -0.0228 0 0.028 0 -0.1863 0
2 -0.1432 0 0.0617 0 -0.1083 0
3 -0.2802 0 -0.0678 0 -0.0122 0
4 -0.2801 0 -0.0678 0 -0.0122 0
5 -0.2801 0 -0.0678 0 -0.0122 0
6 0 0 4.4072 0 0 0
7 0 0 4.4072 0 0 0
8 8.3667 0 1.1932 0 0 0
9 0 0 3.9661 0 0 0
10 0 0 1.559 0 0 0
11 0 0 3 0 0 0
12 0 0 3 0 0 0
13 0 0 5.3826 0 0 0
14 0 0 1.219 0 0 0

AngleAngleTorsion Coeffs

1 0 108.4 110.77
2 -12.564 110.77 110.77
3 0 108.4 120.05
4 -5.8888 111 120.05
5 -5.8888 111 120.05
6 -14.4097 120.05 118.9
7 -14.4097 120.05 118.9
8 0 118.9 118.9
9 -4.8141 118.9 117.94
10 4.4444 120.05 117.94
11 0 120.05 121.458
12 0 120.05 121.458
13 0 118.9 121.458
14 -7.1755 121.458 111.872

EndBondTorsion Coeffs

1 0 0 0 0 0 0 1.501 1.101
2 0.213 0.312 0.0777 0.213 0.312 0.0777 1.101 1.101
3 0 0 0 0 0 0 1.53 1.417
4 1.3997 0.7756 0 -0.5835 1.122 0.3978 1.101 1.417
5 1.3997 0.7756 0 -0.5835 1.122 0.3978 1.101 1.417
6 0 0.2421 0 0 -0.6918 0 1.501 1.417
7 0 0.2421 0 0 -0.6918 0 1.501 1.417
8 -0.1185 6.3204 0 -0.1185 6.3204 0 1.417 1.417
9 0 -6.8958 0 0 -0.4669 0 1.417 1.0982
10 0 -1.797 0 0 -0.4879 0 1.501 1.0982
11 0 0 0 0 0 0 1.501 1.3912
12 0 0 0 0 0 0 1.501 1.3912
13 0 -6.5404 0 0 -7.3477 0 1.417 1.3912
14 0 -3.7281 0 0 0.2849 0 1.417 1.0012

MiddleBondTorsion Coeffs

1 0 0 0 1.53
2 -14.261 -0.5322 -0.4864 1.53
3 0 0 0 1.501
4 -5.5679 1.4083 0.301 1.501
5 -5.5679 1.4083 0.301 1.501
6 0 9.1792 0 1.417
7 0 9.1792 0 1.417
8 27.5989 -2.312 0 1.417
9 0 -1.1521 0 1.417
10 0 3.9421 0 1.417
11 0 0 0 1.417
12 0 0 0 1.417
13 0 -0.5693 0 1.417
14 0 3.2085 0 1.3912

BondBond13 Coeffs

1 0 1.501 1.101
2 0 1.101 1.101
3 0 1.53 1.417
4 -3.4826 1.101 1.417
5 -3.4826 1.101 1.417
6 2.5085 1.501 1.417
7 2.5085 1.501 1.417
8 53 1.417 1.417
9 -6.2741 1.417 1.0982
10 0.8743 1.501 1.0982
11 0 1.501 1.3912
12 0 1.501 1.3912
13 -9.7999 1.417 1.3912
14 4.2366 1.417 1.0012

AngleTorsion Coeffs

1 0 0 0 0 0 0 108.4 110.77
2 -0.8085 0.5569 -0.2466 -0.8085 0.5569 -0.2466 110.77 110.77
3 0 0 0 0 0 0 108.4 120.05
4 4.6266 0.1632 0.0461 0.2251 0.6548 0.1237 111 120.05
5 4.6266 0.1632 0.0461 0.2251 0.6548 0.1237 111 120.05
6 0 -4.4683 0 0 3.8987 0 120.05 118.9
7 0 -4.4683 0 0 3.8987 0 120.05 118.9
8 1.9767 1.0239 0 1.9767 1.0239 0 118.9 118.9
9 0 2.5014 0 0 2.7147 0 118.9 117.94
10 0 -0.1242 0 0 3.4601 0 120.05 117.94
11 0 0 0 0 0 0 120.05 121.458
12 0 0 0 0 0 0 120.05 121.458
13 0 9.0901 0 0 -6.0882 0 118.9 121.458
14 0 1.2616 0 0 0.7744 0 121.458 111.872

Improper Coeffs # class2

1 7.8153 0
2 7.8153 0
3 4.8912 0
4 10.7855 0
5 0 0
6 0 0
7 0 0
8 0 0
9 0 0
10 0 0
11 0 0

AngleAngle Coeffs

1 0 0 0 120.05 118.9 120.05
2 0 0 0 120.05 118.9 120.05
3 0 0 0 118.9 117.94 117.94
4 0 0 0 118.9 121.458 121.458
5 0 0 0 111.872 107.513 111.872
6 0.2738 -0.4825 0.2738 110.77 110.77 107.66
7 2.0403 -1.8202 1.0827 108.4 110.77 111
8 0.2738 -0.4825 0.2738 110.77 110.77 107.66
9 2.3794 3.0118 2.3794 111 111 107.66
10 2.3794 3.0118 2.3794 111 111 107.66
11 -0.3157 -0.3157 -0.3157 107.66 107.66 107.66

Atoms # full

1 1 3 0 -1.8416995880210756 -0.34298926671130125 0.30380287704522235 0 0 0
2 1 3 0.0827 -1.0725806550665151 -1.274862511056761 -0.4585917075578321 0 0 0
3 1 3 0 0.3318818767879952 -1.1713786122416119 -0.6449151726103124 0 0 0
4 1 3 -0.1268 0.8864226423784185 -0.0025752946889978645 -0.14007242782998963 0 0 0
5 1 3 0 0.19005456819644007 1.0352750844107659 0.4137580753014958 0 0 0
6 1 3 0.0827 -1.176225103192806 0.816120908966461 0.65200981096259 0 0 0
7 1 1 -0.106 0.8880465714412349 2.351281009731503 0.7168850219851182 0 0 0
8 1 2 -0.159 2.366544081740341 2.315514507159726 0.6399060523781572 0 0 0
9 1 1 -0.106 1.0507716908303761 -2.275924933878024 -1.3554019852113512 0 0 0
10 1 2 -0.159 2.526300600439675 -2.3726271654612114 -1.0314103273244488 0 0 0
11 1 2 -0.159 -3.2775246548826886 -0.49698742490745396 0.558784908057461 0 0 0
12 1 6 -0.5800999999999999 -1.8706926447375478 1.9055272934235168 1.2862151216604514 0 0 0
13 1 6 -0.5800999999999999 -1.7553414290279337 -2.3928096749833343 -0.9532416243730903 0 0 0
14 1 4 0.1268 1.9417289861753737 0.2410160992686956 -0.3609066401662404 0 0 0
15 1 4 0.053 0.48909392384237904 3.0614651374737676 -0.02660923378736335 0 0 0
16 1 4 0.053 0.5930218486167185 2.780553649955028 1.6879085945178627 0 0 0
17 1 4 0.053 2.86133254643601 3.2287488925839867 1.013131117785703 0 0 0
18 1 4 0.053 2.822662650840858 1.4444107036614504 1.1717422975912943 0 0 0
19 1 4 0.053 2.7538447259690653 2.133609804381816 -0.3749507390844411 0 0 0
20 1 4 0.053 0.534789249632956 -3.203401710001775 -1.2322099428244426 0 0 0
21 1 4 0.053 1.2627138051194162 -1.9565146058621585 1.9457225458627585 0 0 -1
22 1 4 0.053 2.8619043666615216 -3.310160055776727 -1.5098120710410345 0 0 0
23 1 4 0.053 3.0082188322445127 -1.4405342445638514 -1.2531974646783408 0 0 0
24 1 4 0.053 2.7664044882462964 -2.542672627964687 0.039124334118746606 0 0 0
25 1 4 0.053 -3.5053525820583213 0.038286212195767 1.5033974789814963 0 0 0
26 1 4 0.053 -3.907111483175897 0.03812822412231043 -0.21179371861114715 0 0 0
27 1 4 0.053 -3.691379491876279 -1.4671030484182523 0.7209860509404091 0 0 0
28 1 5 0.2487 -2.4151470310014727 1.582747527411672 2.027922675668955 0 0 0
29 1 5 0.2487 -1.1881151807893886 2.540187682170739 1.5675350733280506 0 0 0
30 1 5 0.2487 -1.1847878756561574 -2.79441939525479 -1.615501427891652 0 0 0
31 1 5 0.2487 -2.6436464827246016 -2.2481171887746343 -1.2762011749677895 0 0 0

Velocities

1 -0.011407575083329093 -0.003065773673511969 0.001707469409998567
2 0.0031797695739483383 0.009440473330952517 -0.0022584229807467242
3 0.004946410978409799 0.005701042026871693 -0.002617832278631901
4 -0.009551979886841845 -0.0006805638348971367 0.006263890822674659
5 0.002641293903884599 -0.0008392642751555936 -0.00571946360498553
6 0.004585664245612651 -0.0023107783226536736 -0.0012095210048657587
7 -0.008098562985712038 0.004124049037416167 -0.0011275441696513558
8 -0.0024024239540707372 0.0039787842449675965 -0.005961137517417298
9 0.005418299219346358 -0.012334413924742387 0.008838122018158702
10 0.0015453679170626625 0.0010542298727017905 0.0035455961435906787
11 -0.005350782484234528 -0.003978203519790199 0.0007900944829889075
12 0.0029464305816858873 0.003027049994435117 0.0019512353100179201
13 0.005074956907126305 -0.0007847449448396843 0.0027542143823728843
14 -0.003769850342865998 -0.003264257130627947 0.00037321705957262484
15 0.006351292556285827 0.022938675914010054 -0.018405910164451676
16 0.0013369212366316496 -0.0059116286529838505 0.009622540338842104
17 0.01833204563385005 -0.004929410402444686 -0.017524654698490353
18 0.0045413192722814555 0.001379789510421065 -0.009642328571129866
19 0.007482113456250714 0.007396915575892466 0.003361802076783968
20 -0.0004918457943753458 -0.012933772885083088 0.02321822830530028
21 -0.016918548446387186 0.030633150643237846 0.013504885481040108
22 0.007138215042870506 0.006208263937233671 0.016012027820286157
23 0.007100140052440167 0.007055526211123629 -0.002481987826815476
24 0.024859971743139163 0.0028289729591921744 -0.014651992294916838
25 -0.014104834548590458 -0.004073697103614009 -0.017844791496103275
26 0.01635114119004519 0.000822186479703619 -0.014936561823947979
27 0.001454472281434737 -0.00041619719652848016 -0.004841281274798367
28 0.008497050375934553 -0.017574929074251396 -0.011016750595044315
29 -0.02778290090899696 -0.012855208181944598 -0.028212694500905515
30 0.03059894159353048 -0.021813874444386035 -0.018512109088384472
31 -0.009721174108212298 -0.03963310416464617 -0.00023464063379316066

Bonds

1 6 1 2
2 6 1 6
3 6 2 3
4 8 2 13
5 6 3 4
6 6 4 5
7 7 4 14
8 6 5 6
9 8 6 12
10 2 7 5
11 1 7 8
12 3 7 15
13 3 7 16
14 5 8 17
15 5 8 18
16 5 8 19
17 2 9 3
18 1 9 10
19 3 9 20
20 3 9 21
21 5 10 22
22 5 10 23
23 5 10 24
24 4 11 1
25 5 11 25
26 5 11 26
27 5 11 27
28 9 28 12
29 9 29 12
30 9 30 13
31 9 31 13

Angles

1 8 2 1 6
2 5 11 1 6
3 5 11 1 2
4 10 3 2 13
5 10 1 2 13
6 8 1 2 3
7 2 9 3 2
8 8 2 3 4
9 2 9 3 4
10 9 5 4 14
11 8 3 4 5
12 9 3 4 14
13 8 4 5 6
14 2 7 5 6
15 2 7 5 4
16 10 1 6 12
17 8 1 6 5
18 10 5 6 12
19 6 5 7 15
20 4 8 7 16
21 3 8 7 5
22 4 8 7 15
23 12 15 7 16
24 6 5 7 16
25 13 17 8 19
26 1 7 8 19
27 13 17 8 18
28 1 7 8 18
29 13 18 8 19
30 1 7 8 17
31 3 10 9 3
32 4 10 9 20
33 6 3 9 21
34 6 3 9 20
35 12 20 9 21
36 4 10 9 21
37 1 9 10 22
38 1 9 10 24
39 13 22 10 24
40 13 23 10 24
41 1 9 10 23
42 13 22 10 23
43 13 25 11 26
44 7 1 11 26
45 13 26 11 27
46 7 1 11 25
47 7 1 11 27
48 13 25 11 27
49 11 6 12 29
50 11 6 12 28
51 14 28 12 29
52 14 30 13 31
53 11 2 13 31
54 11 2 13 30

Dihedrals

1 11 11 1 6 12
2 13 2 1 6 12
3 13 6 1 2 13
4 11 11 1 2 13
5 8 2 1 6 5
6 6 11 1 2 3
7 6 11 1 6 5
8 8 3 2 1 6
9 14 1 2 13 30
10 8 1 2 3 4
11 14 3 2 13 31
12 14 3 2 13 30
13 14 1 2 13 31
14 7 9 3 2 1
15 13 4 3 2 13
16 10 9 3 4 14
17 8 2 3 4 5
18 9 2 3 4 14
19 12 9 3 2 13
20 7 9 3 4 5
21 8 3 4 5 6
22 7 7 5 4 3
23 12 7 5 6 12
24 13 4 5 6 12
25 10 7 5 4 14
26 9 6 5 4 14
27 7 7 5 6 1
28 14 1 6 12 28
29 8 1 6 5 4
30 14 5 6 12 28
31 14 1 6 12 29
32 14 5 6 12 29
33 4 15 7 5 4
34 4 15 7 5 6
35 3 8 7 5 4
36 3 8 7 5 6
37 4 16 7 5 4
38 4 16 7 5 6
39 2 16 7 8 18
40 2 15 7 8 19
41 1 5 7 8 17
42 2 16 7 8 17
43 2 15 7 8 18
44 1 5 7 8 19
45 2 16 7 8 19
46 2 15 7 8 17
47 1 5 7 8 18
48 3 10 9 3 4
49 4 20 9 3 2
50 4 21 9 3 4
51 3 10 9 3 2
52 4 20 9 3 4
53 4 21 9 3 2
54 2 21 9 10 23
55 1 3 9 10 22
56 2 20 9 10 22
57 2 21 9 10 22
58 1 3 9 10 24
59 2 20 9 10 24
60 2 21 9 10 24
61 1 3 9 10 23
62 2 20 9 10 23
63 5 26 11 1 6
64 5 27 11 1 2
65 5 25 11 1 6
66 5 26 11 1 2
67 5 27 11 1 6
68 5 25 11 1 2

Impropers

1 2 11 1 2 6
2 4 1 2 3 13
3 1 9 3 2 4
4 3 3 4 5 14
5 1 7 5 4 6
6 4 1 6 5 12
7 8 8 7 15 16
8 9 5 7 15 16
9 7 8 7 5 16
10 7 8 7 5 15
11 6 7 8 17 18
12 6 7 8 18 19
13 6 7 8 17 19
14 11 17 8 18 19
15 9 3 9 20 21
16 7 10 9 3 21
17 8 10 9 20 21
18 7 10 9 3 20
19 6 9 10 22 24
20 11 22 10 23 24
21 6 9 10 22 23
22 6 9 10 23 24
23 10 1 11 25 27
24 11 25 11 26 27
25 10 1 11 25 26
26 10 1 11 26 27
27 5 6 12 28 29
28 5 2 13 30 31
