LAMMPS data file via write_data, version 12 Jun 2025, timestep = 10000, units = real

31 atoms
6 atom types
31 bonds
9 bond types
54 angles
14 angle types
68 dihedrals
14 dihedral types
28 impropers
11 improper types

-4.214360983306631 2.844780337302093 xlo xhi
-6.207128527602681 4.182838205591377 ylo yhi
-3.0727444968942894 3.0731380449045993 zlo zhi
-0.21771311926245682 0.6360353667465835 0 xy xz yz

Masses

1 12.01115
2 12.01115
3 12.01115
4 1.00797
5 1.00797
6 14.0067

Pair Coeffs # lj/class2/coul/long

1 0.054 4.01
2 0.054 3.9
3 0.064 4.01
4 0.02 2.995
5 0.013 1.098
6 0.065 4.07

Bond Coeffs # class2

1 1.53 299.67 -501.77 679.81
2 1.501 321.902 -521.821 572.163
3 1.101 345 -691.89 844.6
4 1.501 321.902 -521.821 572.163
5 1.101 345 -691.89 844.6
6 1.417 470.836 -627.618 1327.63
7 1.0982 372.825 -803.453 894.317
8 1.3912 447.044 -784.535 886.167
9 1.0012 465.861 -1066.24 1496.56

Angle Coeffs # class2

1 110.77 41.453 -10.604 5.129
2 120.05 44.7148 -22.7352 0
3 108.4 43.9594 -8.3924 -9.3379
4 110.77 41.453 -10.604 5.129
5 120.05 44.7148 -22.7352 0
6 111 44.3234 -9.4454 0
7 111 44.3234 -9.4454 0
8 118.9 61.0226 -34.9931 0
9 117.94 35.1558 -12.4682 0
10 121.458 61.0647 -21.6172 0
11 111.873 40.8369 -15.6673 0
12 107.66 39.641 -12.921 -2.4318
13 107.66 39.641 -12.921 -2.4318
14 107.513 42.5182 -21.7566 -4.3372

BondBond Coeffs

1 3.3872 1.53 1.101
2 12.0676 1.501 1.417
3 0 1.53 1.501
4 3.3872 1.53 1.101
5 12.0676 1.501 1.417
6 2.9168 1.501 1.101
7 2.9168 1.501 1.101
8 68.2856 1.417 1.417
9 1.0795 1.417 1.0982
10 46.9513 1.417 1.3912
11 4.5393 1.3912 1.0012
12 5.3316 1.101 1.101
13 5.3316 1.101 1.101
14 -9.9447 1.0012 1.0012

BondAngle Coeffs

1 20.754 11.421 1.53 1.101
2 47.0579 31.0771 1.501 1.417
3 0 0 1.53 1.501
4 20.754 11.421 1.53 1.101
5 47.0579 31.0771 1.501 1.417
6 26.4608 11.7717 1.501 1.101
7 26.4608 11.7717 1.501 1.101
8 28.8708 28.8708 1.417 1.417
9 20.0033 24.2183 1.417 1.0982
10 39.404 73.6548 1.417 1.3912
11 38.5704 16.5524 1.3912 1.0012
12 18.103 18.103 1.101 1.101
13 18.103 18.103 1.101 1.101
14 17.1597 17.1597 1.0012 1.0012

Dihedral Coeffs # class2

1 -0.0228 0 0.028 0 -0.1863 0
2 -0.1432 0 0.0617 0 -0.1083 0
3 -0.2802 0 -0.0678 0 -0.0122 0
4 -0.2801 0 -0.0678 0 -0.0122 0
5 -0.2801 0 -0.0678 0 -0.0122 0
6 0 0 4.4072 0 0 0
7 0 0 4.4072 0 0 0
8 8.3667 0 1.1932 0 0 0
9 0 0 3.9661 0 0 0
10 0 0 1.559 0 0 0
11 0 0 3 0 0 0
12 0 0 3 0 0 0
13 0 0 5.3826 0 0 0
14 0 0 1.219 0 0 0

AngleAngleTorsion Coeffs

1 0 108.4 110.77
2 -12.564 110.77 110.77
3 0 108.4 120.05
4 -5.8888 111 120.05
5 -5.8888 111 120.05
6 -14.4097 120.05 118.9
7 -14.4097 120.05 118.9
8 0 118.9 118.9
9 -4.8141 118.9 117.94
10 4.4444 120.05 117.94
11 0 120.05 121.458
12 0 120.05 121.458
13 0 118.9 121.458
14 -7.1755 121.458 111.872

EndBondTorsion Coeffs

1 0 0 0 0 0 0 1.501 1.101
2 0.213 0.312 0.0777 0.213 0.312 0.0777 1.101 1.101
3 0 0 0 0 0 0 1.53 1.417
4 1.3997 0.7756 0 -0.5835 1.122 0.3978 1.101 1.417
5 1.3997 0.7756 0 -0.5835 1.122 0.3978 1.101 1.417
6 0 0.2421 0 0 -0.6918 0 1.501 1.417
7 0 0.2421 0 0 -0.6918 0 1.501 1.417
8 -0.1185 6.3204 0 -0.1185 6.3204 0 1.417 1.417
9 0 -6.8958 0 0 -0.4669 0 1.417 1.0982
10 0 -1.797 0 0 -0.4879 0 1.501 1.0982
11 0 0 0 0 0 0 1.501 1.3912
12 0 0 0 0 0 0 1.501 1.3912
13 0 -6.5404 0 0 -7.3477 0 1.417 1.3912
14 0 -3.7281 0 0 0.2849 0 1.417 1.0012

MiddleBondTorsion Coeffs

1 0 0 0 1.53
2 -14.261 -0.5322 -0.4864 1.53
3 0 0 0 1.501
4 -5.5679 1.4083 0.301 1.501
5 -5.5679 1.4083 0.301 1.501
6 0 9.1792 0 1.417
7 0 9.1792 0 1.417
8 27.5989 -2.312 0 1.417
9 0 -1.1521 0 1.417
10 0 3.9421 0 1.417
11 0 0 0 1.417
12 0 0 0 1.417
13 0 -0.5693 0 1.417
14 0 3.2085 0 1.3912

BondBond13 Coeffs

1 0 1.501 1.101
2 0 1.101 1.101
3 0 1.53 1.417
4 -3.4826 1.101 1.417
5 -3.4826 1.101 1.417
6 2.5085 1.501 1.417
7 2.5085 1.501 1.417
8 53 1.417 1.417
9 -6.2741 1.417 1.0982
10 0.8743 1.501 1.0982
11 0 1.501 1.3912
12 0 1.501 1.3912
13 -9.7999 1.417 1.3912
14 4.2366 1.417 1.0012

AngleTorsion Coeffs

1 0 0 0 0 0 0 108.4 110.77
2 -0.8085 0.5569 -0.2466 -0.8085 0.5569 -0.2466 110.77 110.77
3 0 0 0 0 0 0 108.4 120.05
4 4.6266 0.1632 0.0461 0.2251 0.6548 0.1237 111 120.05
5 4.6266 0.1632 0.0461 0.2251 0.6548 0.1237 111 120.05
6 0 -4.4683 0 0 3.8987 0 120.05 118.9
7 0 -4.4683 0 0 3.8987 0 120.05 118.9
8 1.9767 1.0239 0 1.9767 1.0239 0 118.9 118.9
9 0 2.5014 0 0 2.7147 0 118.9 117.94
10 0 -0.1242 0 0 3.4601 0 120.05 117.94
11 0 0 0 0 0 0 120.05 121.458
12 0 0 0 0 0 0 120.05 121.458
13 0 9.0901 0 0 -6.0882 0 118.9 121.458
14 0 1.2616 0 0 0.7744 0 121.458 111.872

Improper Coeffs # class2

1 7.8153 0
2 7.8153 0
3 4.8912 0
4 10.7855 0
5 0 0
6 0 0
7 0 0
8 0 0
9 0 0
10 0 0
11 0 0

AngleAngle Coeffs

1 0 0 0 120.05 118.9 120.05
2 0 0 0 120.05 118.9 120.05
3 0 0 0 118.9 117.94 117.94
4 0 0 0 118.9 121.458 121.458
5 0 0 0 111.872 107.513 111.872
6 0.2738 -0.4825 0.2738 110.77 110.77 107.66
7 2.0403 -1.8202 1.0827 108.4 110.77 111
8 0.2738 -0.4825 0.2738 110.77 110.77 107.66
9 2.3794 3.0118 2.3794 111 111 107.66
10 2.3794 3.0118 2.3794 111 111 107.66
11 -0.3157 -0.3157 -0.3157 107.66 107.66 107.66

Atoms # full

1 1 3 0 -1.3620162421257271 -0.4601045955739709 -0.8207545904042339 0 0 0
2 1 3 0.0827 -0.7336546362449714 -1.4506913080461157 -0.03250055578620392 0 0 0
3 1 3 0 0.29928838398542723 -1.1076153874468346 0.830212601516449 0 0 0
4 1 3 -0.1268 0.6057928861462836 0.24515256647368577 0.9412161584693699 0 0 0
5 1 3 0 -0.0768695326027613 1.2574910487614863 0.3398676946118657 0 0 0
6 1 3 0.0827 -1.0826793168785436 0.8605099595734877 -0.5883943013809434 0 0 0
7 1 1 -0.106 0.3016340014664616 2.7060453138075964 0.5744358632458821 0 0 0
8 1 2 -0.159 1.1398478265986425 3.2316347327304413 -0.6332644824978018 0 0 0
9 1 1 -0.106 0.9957922010659104 -2.024355749765328 1.6725794703645454 0 0 0
10 1 2 -0.159 2.4296253286984433 -2.2685780009297885 1.2019240749344853 0 0 0
11 1 2 -0.159 -2.3266721594869977 -0.9892197736478732 -1.840388710909969 0 0 0
12 1 6 -0.5800999999999999 -1.817515995506278 1.8440186978268311 -1.2597913457353676 0 0 0
13 1 6 -0.5800999999999999 -1.0408506396174175 -2.846584912280974 -0.17093236896653963 0 0 0
14 1 4 0.1268 1.3531340824086682 0.5479862989870963 1.6909346963859333 0 0 0
15 1 4 0.053 -0.6371205080253226 3.3006414078272854 0.6258316197740532 0 0 0
16 1 4 0.053 0.8337596731664467 2.769490223639929 1.5119918919269129 0 0 0
17 1 4 0.053 1.234456160422961 -6.067197812363208 -0.6273744663780372 0 1 0
18 1 4 0.053 2.203622172080167 2.878508214034703 -0.482183882309255 0 0 0
19 1 4 0.053 0.8418584385023538 2.777279786211336 -1.6094475093351424 0 0 0
20 1 4 0.053 1.1397887953382124 -1.5852277230935323 2.6707151538608764 0 0 0
21 1 4 0.053 0.5147393160484599 -3.0053947021207192 1.8650335211487334 0 0 0
22 1 4 0.053 3.142217032960102 -2.517077330947888 2.0477272343729176 0 0 0
23 1 4 0.053 2.5387131319086276 -3.131880181029851 0.5920711982161113 0 0 0
24 1 4 0.053 2.9617918438024065 -1.4368484825634669 0.6912799744570135 0 0 0
25 1 4 0.053 -1.9297627484292414 -1.9595092246418755 -2.337364958054154 0 0 0
26 1 4 0.053 -3.2027050337134204 -1.2085221529052497 -1.1875103134229739 0 0 0
27 1 4 0.053 -2.581777339866501 -0.2924092776919416 -2.6652419430141197 0 0 0
28 1 5 0.2487 -2.6996792636375995 1.5570227519086464 -1.6086392040529471 0 0 0
29 1 5 0.2487 -1.747853180422441 2.675023186995956 -0.7832549939473687 0 0 0
30 1 5 0.2487 -1.395838404435544 -3.1952094552985595 0.7216902710933026 0 0 0
31 1 5 0.2487 -1.822507206641851 -2.9601790981080507 -0.8477674965978084 0 0 0

Velocities

1 0.0016969816275266584 0.0036467635876981618 0.010309672007256628
2 -0.0040599846828070826 0.008841514970097355 0.0018144066939350188
3 0.0013800968415151262 0.003622978652214551 -0.0014227151849914707
4 -0.002666637818717663 -0.002203699915550153 0.0007312370599354672
5 0.003139179600823678 0.005399771178917969 -0.004193101051505836
6 -0.00028512697749965416 0.0031067867848043815 -0.006388188047344382
7 -0.005369386484543215 -0.007580240708416603 0.0029466266942607595
8 0.0019930009437354166 -0.008177842047740507 0.0021947540280527968
9 0.0074946958835485815 -0.009150399138320046 0.00021707978708388633
10 0.00039327442404734914 0.007124419860108066 0.0011644598301034698
11 -0.006267406508861094 -0.006006286567807736 -0.004184855979355768
12 0.003284754925708716 -0.002894488249164268 -0.0006727407624593915
13 -0.004353280936570997 -0.0009545209496660932 0.001886604353565152
14 -0.010079861461002565 -0.009671367486682056 -0.00741580223524488
15 -0.0036945453620855734 0.0010376839499523273 -0.006557817627981065
16 0.02028908532542817 -0.008221852610225004 -0.01261305452721903
17 -0.015400805637358912 -0.00449813009373661 0.005934085460769715
18 0.01066161767847898 0.0031824428108524786 0.009285905139450898
19 -0.016770056409452592 0.02667156350902918 -0.012485463454877409
20 0.009260041127263226 -0.00737877802462397 0.03469029011120229
21 0.02467377641223753 0.0032293424008008266 -0.012399879631639821
22 0.011705289477130284 0.011078736413730203 0.019680948133388314
23 -0.011748275870945223 0.010994123670318148 -0.0007336053452965981
24 -0.019469266342979206 0.007288032290110042 -0.03400687883013082
25 0.012243191728808929 -1.0753951457962595e-05 -0.03285247630633716
26 -0.005450430466174447 0.00764118944420891 0.010002508388418794
27 0.021489438278582906 0.002405687967010185 -0.013267736483091356
28 -0.017013354586421163 0.023335448171851507 0.028133845003634292
29 -0.005752656907782296 0.009280175546147549 -0.0066964040422255655
30 0.011830740111706177 -0.015313549590010342 -0.015968761052455833
31 0.02847615795945011 0.00883508378443324 -0.007602659982121433

Bonds

1 6 1 2
2 6 1 6
3 6 2 3
4 8 2 13
5 6 3 4
6 6 4 5
7 7 4 14
8 6 5 6
9 8 6 12
10 2 7 5
11 1 7 8
12 3 7 15
13 3 7 16
14 5 8 17
15 5 8 18
16 5 8 19
17 2 9 3
18 1 9 10
19 3 9 20
20 3 9 21
21 5 10 22
22 5 10 23
23 5 10 24
24 4 11 1
25 5 11 25
26 5 11 26
27 5 11 27
28 9 28 12
29 9 29 12
30 9 30 13
31 9 31 13

Angles

1 8 2 1 6
2 5 11 1 6
3 5 11 1 2
4 10 3 2 13
5 10 1 2 13
6 8 1 2 3
7 2 9 3 2
8 8 2 3 4
9 2 9 3 4
10 9 5 4 14
11 8 3 4 5
12 9 3 4 14
13 8 4 5 6
14 2 7 5 6
15 2 7 5 4
16 10 1 6 12
17 8 1 6 5
18 10 5 6 12
19 6 5 7 15
20 4 8 7 16
21 3 8 7 5
22 4 8 7 15
23 12 15 7 16
24 6 5 7 16
25 13 17 8 19
26 1 7 8 19
27 13 17 8 18
28 1 7 8 18
29 13 18 8 19
30 1 7 8 17
31 3 10 9 3
32 4 10 9 20
33 6 3 9 21
34 6 3 9 20
35 12 20 9 21
36 4 10 9 21
37 1 9 10 22
38 1 9 10 24
39 13 22 10 24
40 13 23 10 24
41 1 9 10 23
42 13 22 10 23
43 13 25 11 26
44 7 1 11 26
45 13 26 11 27
46 7 1 11 25
47 7 1 11 27
48 13 25 11 27
49 11 6 12 29
50 11 6 12 28
51 14 28 12 29
52 14 30 13 31
53 11 2 13 31
54 11 2 13 30

Dihedrals

1 11 11 1 6 12
2 13 2 1 6 12
3 13 6 1 2 13
4 11 11 1 2 13
5 8 2 1 6 5
6 6 11 1 2 3
7 6 11 1 6 5
8 8 3 2 1 6
9 14 1 2 13 30
10 8 1 2 3 4
11 14 3 2 13 31
12 14 3 2 13 30
13 14 1 2 13 31
14 7 9 3 2 1
15 13 4 3 2 13
16 10 9 3 4 14
17 8 2 3 4 5
18 9 2 3 4 14
19 12 9 3 2 13
20 7 9 3 4 5
21 8 3 4 5 6
22 7 7 5 4 3
23 12 7 5 6 12
24 13 4 5 6 12
25 10 7 5 4 14
26 9 6 5 4 14
27 7 7 5 6 1
28 14 1 6 12 28
29 8 1 6 5 4
30 14 5 6 12 28
31 14 1 6 12 29
32 14 5 6 12 29
33 4 15 7 5 4
34 4 15 7 5 6
35 3 8 7 5 4
36 3 8 7 5 6
37 4 16 7 5 4
38 4 16 7 5 6
39 2 16 7 8 18
40 2 15 7 8 19
41 1 5 7 8 17
42 2 16 7 8 17
43 2 15 7 8 18
44 1 5 7 8 19
45 2 16 7 8 19
46 2 15 7 8 17
47 1 5 7 8 18
48 3 10 9 3 4
49 4 20 9 3 2
50 4 21 9 3 4
51 3 10 9 3 2
52 4 20 9 3 4
53 4 21 9 3 2
54 2 21 9 10 23
55 1 3 9 10 22
56 2 20 9 10 22
57 2 21 9 10 22
58 1 3 9 10 24
59 2 20 9 10 24
60 2 21 9 10 24
61 1 3 9 10 23
62 2 20 9 10 23
63 5 26 11 1 6
64 5 27 11 1 2
65 5 25 11 1 6
66 5 26 11 1 2
67 5 27 11 1 6
68 5 25 11 1 2

Impropers

1 2 11 1 2 6
2 4 1 2 3 13
3 1 9 3 2 4
4 3 3 4 5 14
5 1 7 5 4 6
6 4 1 6 5 12
7 8 8 7 15 16
8 9 5 7 15 16
9 7 8 7 5 16
10 7 8 7 5 15
11 6 7 8 17 18
12 6 7 8 18 19
13 6 7 8 17 19
14 11 17 8 18 19
15 9 3 9 20 21
16 7 10 9 3 21
17 8 10 9 20 21
18 7 10 9 3 20
19 6 9 10 22 24
20 11 22 10 23 24
21 6 9 10 22 23
22 6 9 10 23 24
23 10 1 11 25 27
24 11 25 11 26 27
25 10 1 11 25 26
26 10 1 11 26 27
27 5 6 12 28 29
28 5 2 13 30 31
