LAMMPS data file via write_data, version 29 Aug 2024, timestep = 1000, units = real

7200 atoms
2 atom types

-18.093308249833925 18.093308249833925 xlo xhi
-22.745983322490922 22.745983322490922 ylo yhi
-22.28905773275891 22.28905773275891 zlo zhi

Masses

1 12
2 1.008

Atoms # charge

732 2 0.04927189357896648 -15.029192463487911 -19.51909869344562 -17.091309229099686 -1 0 2
78 1 -0.03983303074976911 -13.630044222063002 -15.983846541706967 -18.599676900282052 -2 0 0
77 1 -0.02426979896565722 -13.595679975770416 -16.316141856589642 -21.03165545207321 -2 0 0
80 1 -0.04346612721009738 -13.047634431660034 -16.5544128902321 -19.67227849331176 -2 0 0
76 1 -0.02037387914989716 -14.835627029283305 -15.132353036624304 -18.581554627720617 -2 0 0
800 1 -0.05117719165613598 -15.236367019328474 -14.43093317956335 -17.48227452913739 -2 0 0
75 1 -0.005740322753868696 -14.920088143237416 -15.693990064855187 -21.027243225602966 -2 0 0
801 2 0.04825856057714741 -14.618075107582136 -14.513233926849004 -16.661125104807745 -2 0 0
74 1 -0.005727679630116746 -15.454248386524151 -14.992205514320958 -19.91295177433458 -2 0 0
803 2 0.06434686049430374 -13.177053241064092 -16.085183981957453 -17.597745008266553 -2 0 0
82 2 0.06343710430021343 -12.24470238896927 -17.273275983347215 -19.721858246874994 -2 0 0
2926 1 -0.01529213662130411 -18.06602288608045 -19.94833087311739 -1.6099481427748925 0 0 1
734 1 -0.04230872072808409 -14.109725219809254 -18.90373445726396 -16.82961010620791 -1 0 2
802 1 -0.03503133553573494 -13.984826219546123 -18.11433478033248 -15.786776244315508 -1 0 2
3 2 0.04204039531678436 -17.3087596449538 -20.55584686904605 -17.648914933441084 -1 0 1
146 2 0.05910404435249129 -14.369204560432761 -12.093574014357849 -19.18091762198558 -1 0 0
71 2 0.05093198450894862 -17.41969139903236 -18.274675177585134 -18.65344914663264 -1 0 1
3661 1 -0.01358292211368507 -11.319142414102718 -16.945259652408545 -0.45422507098501014 2 -1 0
6 2 0.05159267226375555 -14.041528301018568 -20.445868296078118 -19.052617507352302 -1 0 2
796 1 -0.05277103092624275 -16.33197442776059 -13.611888064682558 -17.585642083598017 -2 0 0
8 1 -0.04732094524216167 -13.086717916315829 -19.975233157844066 -18.89879423071252 -1 0 2
738 1 -0.01959280043575305 -12.996486345257786 -19.160497165067312 -17.75009372577583 -1 0 2
72 1 -0.01657147422227579 -16.587385950428807 -14.152879997089407 -19.95604407316108 -2 0 0
2173 2 0.0462536956639439 -11.814443772018562 -22.643065291325023 -5.746954161378147 0 1 1
804 1 -0.0201290956381556 -12.917597637729793 -17.168967545656947 -15.646605508620494 -1 0 2
1549 2 0.05969338818058009 -0.4906627499662917 -14.34143645936985 -9.146026188847223 1 0 0
2338 2 0.05839680893470983 -2.4679385601245327 -11.79873324769136 -6.540474443350945 -1 0 0
798 2 0.05064173334847312 -16.913802444592775 -15.700570335829362 -15.787516251762955 -2 -1 0
735 1 -0.04233043418484386 -14.24168776151182 -21.651161412428355 -15.28514462093837 -1 3 1
793 2 0.04764528982120508 -17.661162667092295 -18.248835100574087 -16.368156588314736 -2 -1 0
70 1 -0.04453282020189837 -17.00204937494428 -13.501913318452875 -18.743737099382535 -2 0 0
69 1 -0.01393513948958214 -17.325508928992623 -14.109232961828504 -21.21115541658114 -2 0 0
878 2 0.05210508757212699 -12.837988733048206 -13.0717364465618 -17.591260156902862 -1 0 0
10 2 0.04654266418192304 -12.165389453378964 -20.751208296104696 -20.577834782235772 -1 0 2
9 1 -0.05374903505396655 -11.943589313509781 -20.065447084607555 -19.76671331789324 -1 0 2
870 2 0.05756047773285666 -16.773350286927823 -13.012699799911884 -16.75524545159885 -2 0 0
795 1 -0.05289944974505973 -17.038433816564105 -16.494171050739606 -15.116805547810086 -2 -1 0
879 1 -0.04858738885408627 -12.489867189360945 -12.195644037009938 -17.0276827154445 -1 0 0
792 1 -0.0517988378102214 -17.59756090620861 -17.763453639557405 -15.429775362161473 -2 -1 0
737 2 0.0511930146457828 -13.574103515534654 -21.777953987741476 -16.13551330047459 -1 3 1
731 1 -0.0535601285303224 -15.482182129570901 -22.20477862170882 -15.401038477156181 -1 3 1
5 1 -0.05331145744103837 -14.182764712006882 -21.1490467120917 -22.057229016470465 -2 0 0
6495 1 -0.0418378143038652 -14.823336453511468 -22.38066878778079 -22.147128974405675 -2 0 0
7 2 0.04544171059979892 -13.144396729424795 -21.144011538372446 -21.69580524179744 -2 0 0
13 2 0.06163951788812049 -10.456866652803411 -22.16041067938267 -18.37908031071033 0 0 0
2263 1 -0.001177951179029184 -2.471072173213921 -15.90069416869783 -5.438795219036752 -2 -1 0
18 1 -0.001001415121528852 -7.203216660456346 -22.512736031204064 -17.876834378648756 0 0 2
85 2 0.04799513073539588 -10.456767645160935 -16.427999417173226 -21.66440577624043 -1 4 0
6640 2 0.05451446836790664 -14.323821790244459 -12.658026864407582 -21.890859542398193 1 -1 0
156 1 -0.0361439948250382 -6.797441309824452 -11.54651619793741 -21.811375844883834 -1 4 1
154 2 0.06283302808453269 -7.85715109542172 -11.665288664573525 -21.61652421377316 -1 4 1
83 2 0.05594081286097052 -11.230712430629042 -15.1845782748256 -19.565112714892766 -1 4 0
84 2 0.05287471511012315 -10.407827227825218 -13.765613437542628 -17.397187241993635 -1 4 0
86 1 -0.04421933425888934 -10.181903468674475 -15.236273375058055 -19.820725402032526 -1 4 0
882 2 0.05000091966897448 -11.356692608491668 -13.165994206690602 -15.545072882949013 -1 0 0
806 1 -0.005969667020161173 -11.790726092966702 -18.39863330538611 -17.559395426619954 -1 0 2
807 1 -0.008606309817690276 -11.79089027236716 -17.416107928762806 -16.533608951548903 -1 0 2
11 1 -0.05140562097428354 -10.901854188513985 -19.259539176310156 -19.667759026205 -1 0 2
89 1 -0.01517157223422084 -9.131656406141362 -14.668184004955544 -19.009832887298273 -1 4 0
14 2 0.0491757396500123 -10.07684158890355 -18.980440752891898 -20.291658475763064 -1 0 2
889 1 -0.0396329274202689 -8.424578737976 -13.26091984108684 -17.081569913315967 -1 4 0
12 1 -0.02160341161770339 -10.650918412514237 -18.448369231006502 -18.478761625903402 -1 0 2
811 1 -0.03588786368609762 -9.569044683300307 -17.61309983290411 -18.25179965526796 -1 0 2
809 1 -0.006074348175927327 -10.491085473399272 -16.764982433279215 -16.109169995259442 -1 0 2
17 2 0.05836771571194201 -8.681419021793024 -17.519984844262787 -18.879010186443864 -1 0 2
812 1 -0.01468146902423889 -9.37198050954342 -17.07967114442619 -17.01354852105441 -1 0 2
88 1 -0.03918746895047314 -9.363330177016906 -13.944672911108851 -17.77589509038159 -1 4 0
888 2 0.05444428881292346 -8.799971741493923 -12.655864776197687 -16.243926616810107 -1 4 0
91 1 -0.002690276980058783 -7.774105204191181 -14.604140349237635 -19.522845055307716 -1 4 0
890 1 -0.01070374335134505 -7.057964751603256 -13.17632273104096 -17.561438191683806 -1 4 0
94 1 0.004667785225945981 -6.7123148864443785 -13.907015173604302 -18.805772270953515 -1 4 0
881 1 -0.0503531208378411 -11.536923128107093 -12.173765474236637 -15.984165347973299 -1 0 0
814 1 -0.00792694818714015 -8.383702114801698 -16.397232636780096 -16.177490680987752 -1 0 2
747 1 -0.0195715596769894 -7.010899281389943 -21.676677172783165 -16.707720820578515 0 0 2
19 1 -0.001911678002106433 -6.6526909173546 -22.03852007571141 -19.136267604618254 0 0 2
746 1 -0.04638813615623495 -7.835005335183953 -22.06034158062126 -15.560193161432563 0 0 2
92 1 -0.0191369614518843 -7.444713193143947 -15.203023131100505 -20.79628904335174 -1 4 0
150 2 0.05093999870144621 -11.182928996841705 -12.57182388441196 -20.646213235030995 1 0 1
87 1 -0.050979522207296 -9.772934668636461 -15.87317618810264 -20.994789822050603 -1 4 0
90 1 -0.04560540511894601 -8.468388522615175 -15.92067679414715 -21.531461785913415 -1 4 0
93 2 0.05737883840036616 -6.857132987760776 -16.884106909375255 -18.288351921280658 -1 0 2
816 1 -0.006300864933063643 -6.904279916884484 -16.13441762847374 -16.315553587796302 -1 0 2
818 1 -0.03821644435158701 -6.238042006324594 -16.527302553625656 -17.506935067789815 -1 0 2
16 2 0.05832880248889808 -8.359898035655855 -21.760700554248743 -22.094355244824428 0 0 0
891 2 0.0582447722485258 -6.235522280218003 -12.090169265699604 -16.08807564809503 -1 4 0
15 2 0.05258934766659586 -10.325419030543332 -21.689470834423496 -20.779620430489782 0 0 0
152 1 -0.05498053581075088 -10.85707013938837 -11.665710346434771 -21.245541055765273 1 0 1
819 1 -0.001607913023187323 -6.110744089502686 -15.738736556927192 -15.264398691119164 -1 0 2
29 2 0.05914726290406908 -2.8573319860928947 -22.465244339714012 -18.035367306434203 -1 0 1
23 1 -0.0104165909051643 -5.449670721030996 -21.349428459078915 -21.65898871880577 0 0 2
3524 1 -0.008152239514148691 -16.242466502146574 -22.65867552670428 -3.5419432310932732 0 0 1
3013 1 -0.04141577651588042 -12.8038908399569 -11.491437698652906 -0.8967963779038718 1 -1 0
171 1 -0.008916762905280649 -0.2375384773894977 -13.206515888246082 -19.83234281932037 -1 4 0
106 1 0.006656997816981497 -1.2286359269220644 -14.005978755277189 -20.567743586763715 -1 4 0
104 2 0.06289771725381378 -0.981013070152262 -16.96637779357594 -19.063707159951406 1 -1 1
756 1 -0.007740421281012294 -0.3246543088545592 -22.428111980583154 -16.744737652661527 -1 0 1
893 1 -0.03374611162240646 -5.991171461220169 -12.323351206458746 -17.083681687965363 -1 4 0
748 1 -0.04997071059890743 -6.2113187027538475 -20.464720519032507 -16.80412235417091 0 0 2
749 2 0.04816620274746242 -6.152434575646101 -19.971803965056807 -15.889387600311812 0 0 2
754 1 -0.006330417990811205 -0.7673576908362881 -18.59301500683431 -15.566510020244475 1 -1 1
98 1 -0.005408589094208063 -5.0493051774323074 -14.464054672063535 -20.557223907900593 -1 4 0
32 1 -0.03897621815932779 -2.1885264793632437 -21.756267701652657 -18.54943100008252 -1 0 1
25 1 -0.04866676823625615 -5.057942878351584 -19.084000167766817 -20.78672312859331 0 0 2
102 1 -0.04194468959174805 -3.1806471493414405 -15.431994321336939 -22.07303982918067 -1 4 0
34 1 -0.0159825135336093 -1.2548878784227158 -20.282206987048188 -20.269006068859152 -1 0 1
751 2 0.05334429571349261 -2.5279670219389256 -19.63307648484688 -15.900684694042816 1 -1 1
20 1 -0.01538134573455337 -5.977609808018476 -20.81681220035175 -19.205644550219773 0 0 2
161 1 -0.0003108130721964936 -4.4331598096529365 -13.00136918251812 -18.63296986447252 -1 4 0
24 1 -0.04788099465174943 -5.834860536520058 -20.014387580425716 -18.07400470475104 0 0 2
820 1 -0.0474166842968402 -4.9295792453645175 -16.27969509028943 -17.789727578992775 -1 0 2
903 2 0.04612928825518971 -2.3789238982774554 -12.40068546141939 -17.147902107291458 -1 4 0
95 1 -0.03793210001596634 -6.075699418723094 -15.225826986524657 -21.23800975889301 -1 4 0
27 2 0.04695230627961022 -5.375847861702448 -19.078159093558906 -18.09359749735151 0 0 2
898 2 0.05914535305576431 -3.8237882229305353 -11.990119105132763 -16.841447702044373 -1 4 0
35 1 -0.04415040229874194 -0.4011799699399007 -18.40847797925863 -21.579002836129423 -1 0 1
825 2 0.05640638481720794 -3.1734336286778477 -15.544557182400673 -16.925315968661245 -1 0 2
827 1 -0.04406079459527278 -1.9780439417254956 -18.424817204226667 -17.62168074037875 1 -1 1
2890 1 -0.04274332457389696 -0.9839220513923117 -22.642620083038555 -0.08606664119935983 1 0 0
22 1 -0.01999192445153336 -5.5937071623111425 -20.318727274602594 -20.572290582766563 0 0 2
21 2 0.04706789611278395 -5.095841296619321 -18.483385042096344 -19.896343051904925 0 0 2
168 1 -0.04329919580014609 -1.9560337684585516 -12.826464941781866 -18.153756160496517 -1 4 0
31 1 -0.04021308171387598 -2.323212535537434 -21.074242108843478 -19.718799115351196 -1 0 1
164 1 -0.004678832446619527 -3.0098756384441057 -13.287759312961944 -19.009740409537507 -1 4 0
821 1 -0.01504270772377249 -4.7961030906816715 -15.298249018038009 -15.581185283601034 -1 0 2
822 1 -0.04036274006186713 -4.184640261757927 -15.711405496981442 -16.7526250731407 -1 0 2
753 1 -0.009105615204048588 -0.9101586905099042 -21.860389666644732 -17.946842786967483 -1 0 1
103 1 0.002031942815467034 -2.6263952021796184 -14.147357163224608 -20.073225645372723 -1 4 0
752 1 -0.03921509250303643 -1.882772785649888 -18.903333900022 -16.36702674257339 1 -1 1
26 1 -0.055212239485008 -4.378708606798197 -18.677500389710943 -21.95988963693175 0 0 2
170 1 -0.04302277600940346 -0.6763011184757851 -12.680841423878544 -18.576389011811667 -1 4 0
33 1 -0.04525489738528514 -1.3449532922928062 -19.353932146303105 -21.36207807548267 -1 0 1
105 1 -0.03940567515472591 -1.1304180730177642 -17.41141539940484 -18.097154204389042 1 -1 1
97 1 0.0081819944023958 -5.448072490091702 -13.725252785303164 -19.38265978542105 -1 4 0
99 2 0.05027683379568799 -4.5336202472232925 -16.62247129112548 -18.729398684241175 -1 0 2
895 1 -0.03336335923046258 -4.612447394883181 -12.396539772634297 -17.44385407970817 -1 4 0
28 2 0.06343708795026153 -3.160534711171304 -21.20729657616069 -20.41078782200765 -1 0 1
30 2 0.05668151754037044 -2.2005164835049875 -19.71131332546586 -21.97782491351237 -1 0 1
824 2 0.05351119758579416 -2.701247697115721 -18.67532154423396 -18.399129882068365 1 -1 1
101 1 -0.008120924249033847 -3.6340309666972934 -14.717519014767834 -20.883163494013296 -1 4 0
108 1 0.002859063668306787 -0.8227882418079298 -14.724649688909908 -21.72106662236558 -1 4 0
2887 1 -0.04329080928092317 -2.778553349058511 -21.474443216878598 -3.6624833404171353 1 1 0
96 2 0.05380600269673975 -5.954406102695799 -15.698329034914302 -22.182786315146902 -1 4 0
1443 1 -0.00748701790127624 -15.737336535881012 -21.271917183780786 -13.011992946056012 -1 3 1
733 2 0.067369986895096 -14.929121041572948 -17.941925696656217 -15.180857370431097 -1 0 2
1519 2 0.04382728009431974 -15.561304431494571 -13.641556118298253 -11.948878594906105 -2 -1 0
1518 1 -0.05088835055546382 -16.084545409214265 -14.550633511770323 -12.152215509046597 -2 -1 0
797 1 -0.0564625163337919 -16.040723053507335 -14.909513246603275 -13.498228032895296 -2 -1 0
799 2 0.03893138384143958 -15.66486350182481 -14.250735006519255 -14.327824187504302 -2 -1 0
1517 1 -0.01386505799364158 -16.783274848739797 -15.237575498859748 -11.13310281261023 -2 -1 0
1594 2 0.04554253286699617 -13.711066422854346 -13.87946802581824 -12.607918845688069 0 0 0
1596 1 -0.05664613139011795 -13.104320048354385 -13.196149019028178 -12.248823907031575 0 0 0
730 1 -0.0367042435067509 -16.100597129078952 -22.069132893238713 -14.150526069423242 -1 3 1
1447 1 0.009548897277874936 -13.879060688885671 -20.314675760521137 -11.710901121116025 -1 3 1
1445 1 0.009162754165396039 -14.382478569854294 -20.885311036881358 -12.919733094170734 -1 3 1
1514 1 -0.001603493461455271 -17.38461112351627 -16.585996109162057 -11.387475946394067 -2 -1 0
1520 2 0.05331885691287104 -13.547580624195811 -16.046469832850995 -13.804715377883484 -1 0 2
794 1 -0.02004199876187246 -16.628500081865194 -16.18493718987023 -13.73897421323993 -2 -1 0
1449 1 0.004580940802824174 -12.630199146789922 -19.673480463383573 -11.572489730082852 -1 3 1
736 1 -0.01183362180384514 -13.630673492273887 -20.94040097880568 -14.105393807808744 -1 3 1
739 1 -0.03373687030760814 -12.326517287682945 -20.454457462058098 -13.908557341077678 -1 3 1
1597 1 -0.04949326473206005 -13.255240237923063 -11.857877848493748 -12.413006394502963 0 0 0
1441 1 -0.03627197773934694 -16.600048703735585 -21.15202954059484 -11.887710140066629 -1 3 1
3541 2 0.05755214039866053 -7.139279212807744 -22.45688259548308 -1.1254497162276778 1 1 0
1515 1 -0.0002620874641070872 -17.238313387496596 -17.137614138378936 -12.701650567280304 -2 -1 0
1595 2 0.04197080276637256 -14.055533213367335 -11.42739567706618 -13.042619246743255 0 0 0
1600 1 -0.02497615729838462 -12.210483981866766 -13.595659373885344 -11.13476972957184 0 0 0
1439 2 0.05732877370953905 -17.56015185112757 -21.46172671223054 -12.02431495912652 -1 3 1
805 1 -0.04652764190241186 -12.724372775317656 -16.23048238456686 -14.569972375267795 -1 0 2
729 2 0.05577370433028306 -17.17107905268415 -22.29390732687459 -14.021211665338026 -1 3 1
1521 2 0.05407321547365124 -12.706318961082225 -15.76201713986424 -11.086709767670273 0 0 0
1448 1 -0.03356809067377548 -12.89173785684693 -19.68189349420198 -9.172137146016537 -1 3 1
1516 1 -0.01484540765844803 -17.21299659822997 -14.639425419735622 -9.859400892752026 -2 -1 0
2171 2 0.06201804592174133 -12.652885867523432 -19.526211387890513 -8.16025263339471 -1 3 1
2315 2 0.05369147592857083 -13.045878918013084 -13.267314890730757 -7.701148353085607 0 4 0
2304 1 -0.05394605591027464 -17.44747434542026 -12.666775500208487 -8.422404640199643 -2 -1 0
2305 2 0.04223728511448221 -17.234884712515957 -11.595631059578407 -8.072544825516452 -2 -1 0
2166 2 0.05532041946303672 -14.89461199983659 -20.33634092999162 -8.395604973209155 -1 3 1
1446 1 -0.0388249423471829 -14.220544640711399 -20.241044791122732 -9.252900546300259 -1 3 1
1450 1 -0.008811988094358271 -12.056968077873858 -19.273867144375096 -10.232873741270593 -1 3 1
1589 1 -0.05022020437597972 -17.08138645137499 -13.245615322782196 -9.546115189336911 -2 -1 0
2956 1 -0.004263127446864627 -2.4296230252007236 -15.143182167938914 -3.1194372630554827 -2 -1 0
1440 2 0.04573377027403708 -16.696264138485365 -20.94088023303702 -9.795691481980285 -1 3 1
1444 1 -0.009052196312731724 -14.772448259433899 -20.38856514091942 -10.527653875184328 -1 3 1
1522 1 -0.04905599441213061 -12.139184657231956 -14.897401524717159 -10.707254793371941 0 0 0
1442 1 -0.041532583845629 -16.11257464054595 -20.87301500731275 -10.659997241053782 -1 3 1
1590 2 0.04338286305380196 -16.61244622051215 -12.65169477637745 -10.31662616066642 -2 -1 0
1513 1 -0.00533281129055654 -17.888920783134665 -15.449359414032234 -8.854634492029064 -2 -1 0
2264 1 -0.01865726382505976 -2.0014875543490858 -16.77439952499801 -6.4847085553074555 -2 -1 0
1458 1 0.002141619822595184 -8.499113253955098 -18.877860691934146 -11.185055474861404 -1 3 1
1609 2 0.05647441265428554 -7.281872633369331 -12.003189552713907 -12.14866466361193 -1 0 0
1452 1 -0.009574598714904663 -11.777306653921078 -19.811782376318735 -12.74913245585032 -1 3 1
1532 1 -0.03736552130363271 -6.418347109934646 -18.092961819299376 -12.208330062696128 -1 3 1
887 2 0.05617772242056 -8.992110075371892 -12.183828748168116 -13.914471148751197 -1 0 0
1527 2 0.06134740180571223 -9.653555951054042 -14.685436213724552 -12.59839921157003 -1 0 2
740 2 0.05597738151183479 -11.666288223765969 -20.459466615009074 -14.72134410439428 -1 3 1
808 1 -0.04779865692976411 -11.541089600090077 -15.74785660721693 -14.11024574412504 -1 0 2
1454 1 -0.011339375725184 -10.38221694368881 -19.36997103524741 -12.655827599148283 -1 3 1
1525 2 0.05179878540471639 -11.577366659016002 -15.180085615702522 -13.230991747115352 -1 0 2
741 2 0.05994183604307047 -10.024252909350757 -19.106207800882974 -14.870963653743827 -1 3 1
810 1 -0.0132303945946923 -10.38400654474007 -16.13464236482968 -14.86105119958969 -1 0 2
742 1 -0.04065401345068234 -9.61190731852131 -19.031967977073027 -13.84996103360648 -1 3 1
813 1 -0.007047227399851592 -8.937941206593846 -15.955988481448104 -14.870790170717616 -1 0 2
1528 1 -0.03686928831017772 -8.607052576420296 -14.660595601260264 -12.751057707276775 -1 0 2
815 1 -0.007464529225685579 -8.0945314198651 -15.358324692945809 -13.824984083432124 -1 0 2
743 1 -0.03974320816800658 -8.343031549167192 -18.561128829968094 -13.711916369511608 -1 3 1
745 2 0.05026717731435008 -7.803254674091585 -21.39305601267558 -14.722547784206355 0 0 2
744 2 0.06011686882625322 -7.840456295370828 -18.287600969746062 -14.624915828974096 -1 3 1
1456 1 0.00155872805326537 -9.924551801702448 -19.04747524973537 -11.317781952098798 -1 3 1
1462 1 -0.01413847400612642 -7.665222646037731 -18.5464385586082 -12.369650842066491 -1 3 1
1460 2 0.05434552342520957 -8.020396116626713 -22.225109837234804 -11.888967484906347 0 1 1
817 1 -0.0008677277591031055 -6.61539407628849 -15.239842852418874 -13.990868420720684 -1 0 2
1530 1 -0.04411459485406986 -7.76847063987152 -14.15985559005496 -11.738900760941444 -1 0 2
2317 1 -0.03273306031866099 -12.039866911680074 -13.382361362786348 -7.27489004280769 0 4 0
2176 2 0.05941398048712027 -10.572655768007973 -19.220373552342114 -7.902960089060699 -1 3 1
1455 1 0.00486461115501138 -10.34069825550825 -22.515632343501107 -9.386163496366672 0 1 1
1523 2 0.06370435696532743 -11.007547620732916 -16.26820332266404 -9.66777305629449 0 0 0
1524 1 -0.04077057718784453 -11.02680681903861 -15.297118967190501 -10.028671212773462 0 0 0
2180 1 -0.00894323772458341 -9.429721422434202 -22.080773200367066 -8.318624025621402 0 1 1
1463 1 -0.04548591552591928 -7.526116571288968 -21.820068280821037 -9.757552104686452 0 1 1
2324 1 -0.0435349258519869 -8.010430369963164 -12.6964093974994 -8.782336381398602 0 0 0
2178 1 -0.03227053275314073 -9.993864779508868 -19.13219370412692 -8.83847406101227 -1 3 1
2181 1 -0.0161101946877791 -8.599535470463799 -19.181018961985693 -8.713830879686027 -1 3 1
2183 1 -0.04643206986772726 -7.903440476168827 -18.97808603017524 -7.4587410334302815 -1 3 1
2250 2 0.06506142440729247 -8.707129380747675 -15.906979791205755 -8.446382044840945 0 0 0
2249 1 -0.03286879494281832 -8.91611325115085 -14.907247468619394 -8.733009210411845 0 0 0
1461 1 -0.001904296010629886 -7.811006593561498 -19.03236075684185 -9.930742560154293 -1 3 1
1606 1 -0.01857515554953879 -9.054656282349974 -12.103232201530814 -9.458919546712842 0 0 0
1531 1 -0.02437314755145706 -6.434040048313741 -18.525588590694944 -9.75414255730525 -1 3 1
2186 1 -0.04992770959702344 -6.637318708643329 -18.442225973669316 -7.283342776937007 -1 3 1
2252 1 -0.04645526486496156 -7.823043795192445 -14.096839715764435 -8.70595653770813 0 0 0
2328 2 0.04697819130176976 -7.194339792357593 -12.061751687638722 -8.488692463798357 0 0 0
1464 2 0.04764387416043813 -6.466344165029721 -21.477853391966487 -9.911034768173652 0 1 1
1604 1 -0.001128342259814299 -10.134096698540374 -12.992928977021819 -9.84708782460181 0 0 0
1453 1 -0.009734766514382306 -10.654035374985918 -19.10236664552374 -10.078503906974271 -1 3 1
2184 1 -0.03323120336070903 -8.133667720723754 -21.610737945174087 -8.4831818316283 0 1 1
2185 2 0.062741091796246 -7.5048397540289695 -21.171271742436694 -7.6779829446602506 0 1 1
1526 1 -0.01267852013460937 -10.010649402721004 -14.432758537166892 -9.537299570816199 0 0 0
1602 1 -0.003743259164416646 -11.187126816471212 -12.579057113105213 -10.694798608944412 0 0 0
1529 2 0.06491364142858691 -8.164229052830162 -13.603373201446086 -10.984065064052638 -1 0 2
1459 1 -0.03578131066378672 -8.438100282835514 -22.046397145390582 -10.852263455015548 0 1 1
1457 1 -0.009316406513071793 -9.832382330301966 -22.37273752146965 -10.743048266348296 0 1 1
2258 1 -0.007636322173534649 -3.924345497515638 -13.96749664667922 -4.942558333649785 -2 -1 0
899 1 -0.05728499300350642 -3.2417055971978104 -11.465857770851832 -14.627280136709981 -1 0 1
755 1 -0.0007099070829480435 -0.41251988297767406 -19.185492712261876 -14.264319194304168 1 -1 1
1537 1 -0.0199039233538154 -5.713981265805601 -14.656547330813025 -13.016268963269853 -1 0 2
1467 1 -0.05190890359866642 -3.164247213580263 -20.136749971554227 -11.667388408356821 1 -1 1
1471 1 -0.01238930630084457 -1.3537940316035595 -19.70100378653981 -13.270900847365361 1 -1 1
1373 2 0.04418893283941656 -15.93044678526792 -22.724350890103356 -16.25773486701749 -1 3 1
901 2 0.04003463112848052 -2.6447448274175827 -12.13859308859103 -14.214606405583217 -1 0 1
1539 1 -0.05710908604710215 -4.342193527169959 -14.315597483503653 -13.315835487954335 -1 0 2
1534 2 0.0596871440171626 -5.8999980748942695 -17.841272295427267 -13.092268956026468 -1 3 1
1533 1 -0.04839367944547539 -6.361673337642121 -14.154590968643877 -11.864880792412158 -1 0 2
1468 1 -0.04887592894862123 -2.727831422513528 -19.92095256381106 -13.000116564225682 1 -1 1
750 2 0.04725446011008716 -3.2998352403549287 -19.765561432869013 -13.876094304773067 1 -1 1
1543 2 0.04733334956435088 -1.354874606561056 -15.457682024042816 -12.36203847878377 -2 1 0
1546 1 -0.04641095314006385 -0.2810077117213023 -15.29883272980043 -12.459179461065025 -2 1 0
1465 2 0.04703162651126852 -4.183777907647925 -20.205171600382936 -11.261391256739259 1 -1 1
1541 2 0.03760048232908425 -3.7038420149001707 -13.719385068150146 -12.612086957002933 -1 0 2
823 1 -0.0517883354327513 -3.98392797843834 -14.602130616219899 -14.56016436116867 -1 0 2
1473 1 0.006413766045163666 -0.3926302012961806 -19.864269361972006 -12.210896650353629 1 -1 1
1613 2 0.06001642877212329 -5.132081703282849 -12.404964842473891 -14.41865043172218 -1 0 1
826 2 0.04207086959779852 -3.002981151650698 -14.300013520836691 -14.792083233207782 -1 0 2
1538 2 0.04670014444127508 -4.72953838283856 -17.827565119540765 -10.737650821677082 -1 3 1
2255 1 -0.04882877898159034 -5.8672371412018185 -18.261608970239337 -8.466777409691785 -1 3 1
1535 1 -0.04713162634132991 -5.763779364931677 -18.08057330857835 -10.940323212386808 -1 3 1
1472 1 0.002146635676109702 -0.7875010891956585 -20.110642609129005 -10.817299324374243 1 -1 1
1470 1 -0.02309316645589422 -2.228205307236066 -20.153160900985604 -10.587927778936685 1 -1 1
2262 2 0.04680747222059469 -2.427971420334757 -17.664005156717256 -8.46020873467587 -2 -1 0
2256 2 0.04712266197993538 -4.769198579395214 -18.18788131067951 -8.655957786777252 -1 3 1
868 2 0.04563479367179363 -17.759119663061554 -12.857967071040333 -14.026770475513462 -1 4 1
1536 2 0.04001189620351155 -5.68215199230208 -13.649804756664931 -11.127480715741086 -1 0 2
2267 2 0.05900264693350295 -0.2695866664295674 -17.720372521798808 -8.682009543941003 -2 1 0
1469 1 -0.0546150711816623 -2.604265073309615 -20.342040883393178 -9.229913040183213 1 -1 1
2202 1 -0.01823797319972733 -0.3069848428985142 -20.610777963292616 -8.441816215153667 1 -1 1
1545 1 -0.0381727444151787 -0.2554505441091602 -16.670875054322902 -10.382853041716874 -2 1 0
81 2 0.04650800728178417 -12.226264255923578 -17.283641857389988 -22.188332897364024 -2 0 0
2259 1 -0.04979300238780127 -3.4339599805650547 -15.86341467286527 -8.2380052653226 -2 -1 0
1540 2 0.04265769811562317 -3.949382535338046 -16.08973868108387 -9.279636630029454 -2 -1 0
2261 1 -0.04995381615852593 -2.6740324800737927 -16.88856895132127 -7.75445940627665 -2 -1 0
1617 1 -0.06171483611266335 -1.5906836973965652 -12.642033730765533 -9.589225817579644 1 0 0
2333 1 -0.04964729104923943 -4.536067140388788 -13.679774997048792 -7.70070673937359 -2 -1 0
2330 2 0.03893100979824381 -5.065573084386603 -13.53444357909109 -8.68928748455126 -2 -1 0
1544 2 0.05073094173138616 -1.338025154147109 -16.770848427071048 -10.521191501966145 -2 1 0
1542 2 0.04079830105714821 -2.5156315194752645 -13.15574869790339 -9.815087835890019 1 0 0
2198 1 -0.05315671541613172 -1.706547290070296 -20.53051207407323 -8.225005324971729 1 -1 1
1466 2 0.04154900517716944 -3.603103225388684 -20.373698507835392 -8.875409663173597 1 -1 1
2196 2 0.04277099730792058 -2.0170356309012862 -20.502982628870136 -7.216399191875849 1 -1 1
1512 1 0.00104236771217564 -17.934247100447692 -18.2946460414145 -13.020990491042099 -2 -1 0
1547 1 -0.04451699902484769 -0.4838060637391452 -13.2572205618198 -9.249689574776225 1 0 0
3006 1 -0.01121022269665547 -16.554536657556277 -11.8789196770974 -0.038819584311263665 1 -1 0
2240 1 -0.03170972729572477 -13.780546791879129 -16.247091362631718 -7.277768941819432 0 4 0
2169 1 0.001125032669114743 -13.545334460474576 -18.21246625542452 -5.939151831553466 0 4 0
2238 2 0.06378761142844228 -14.460478559501311 -15.49172716161291 -7.645678938030174 0 4 0
2239 1 -0.01684929162276066 -14.159958771217546 -17.62584386257799 -7.108045045620665 0 4 0
2168 1 -0.01598964700460205 -13.964794824386326 -19.484854364581228 -5.413613175059253 0 4 0
2935 1 0.001273537684587267 -14.20521736304912 -16.204784382973592 -2.8346955215918763 2 -1 0
2934 1 0.004363634268554691 -14.574477146691306 -15.2274035834445 -3.710688320645638 2 -1 0
2865 1 -0.03617733962587041 -14.19878072132729 -18.626388820891243 -2.0976229411626353 2 -1 0
2933 1 -0.01306240635031514 -14.893728029970665 -17.542238491273082 -2.7412907481175366 2 -1 0
2930 1 -0.01461708351397961 -15.884182808674328 -15.405994179024088 -4.322801171498371 2 -1 0
2165 1 -0.04838249346215873 -15.326506160134135 -19.847320475787566 -5.808314001290897 0 4 0
2236 1 -0.04076197296145673 -15.421756691196036 -18.22855762670895 -7.549095895017934 0 4 0
2929 1 -0.03427238659116345 -16.001615894273943 -17.719611217394732 -3.665172527965633 2 -1 0
2163 1 -0.06028132119804408 -16.04736210027585 -19.31155410126957 -6.907815076215855 0 4 0
2235 1 -0.04103986864225381 -16.23873719635608 -14.446660398982612 -5.358107666122321 2 -1 0
2234 2 0.06650487975454088 -16.01593377675586 -17.82802826276098 -8.343157614265309 0 4 0
2928 1 -0.03504310978503077 -16.554915656464377 -16.58933360428916 -4.2458190068687465 2 -1 0
2164 2 0.0532403210204631 -15.815590843368609 -20.66177574367934 -5.32278745214282 0 4 0
2232 2 0.0681862814181798 -17.376452640472348 -16.572027908440695 -4.86018680821432 2 -1 0
2861 2 0.0619858888745002 -16.45288186104548 -18.629488740806757 -3.850616714139955 2 -1 0
2866 2 0.05667145309472887 -13.612002051155912 -21.294186824824482 -4.3585219790127026 0 4 0
2170 1 -0.04153844113817176 -13.199980712631598 -20.289186608357166 -4.490526047807167 0 4 0
2233 2 0.07114828935042664 -17.1152275952019 -14.506138125137056 -5.973294076070002 2 -1 0
2237 1 -0.0536388842181633 -15.37124966272414 -13.324433700402498 -5.499978344986009 2 -1 0
3010 1 -0.04098333191444251 -14.273688383378907 -13.534781412914752 -0.5916962024842957 1 -1 0
2241 1 -0.01190453100529837 -12.566561215554625 -15.776897861910255 -6.7760835370927825 0 4 0
2306 2 0.04496703171292081 -15.791966469714056 -12.642326187881276 -6.284824820699082 2 -1 0
2310 1 -0.04729455744113457 -14.149034473839578 -13.13006653297534 -4.8788401648783655 2 -1 0
897 1 -0.04990341438542339 -4.660379517336484 -11.46932427304044 -14.650693470565553 -1 0 1
2936 1 -0.009336714997520666 -13.614447745776562 -14.195943717411721 -4.106332691137691 2 -1 0
2312 2 0.04587224650455874 -13.540989536337786 -12.184313068608006 -4.998510995074621 2 -1 0