LAMMPS data file via write_data, version 29 Aug 2024, timestep = 1000, units = real

7200 atoms
2 atom types

-18.093308249833925 18.093308249833925 xlo xhi
-22.745983322490922 22.745983322490922 ylo yhi
-22.28905773275891 22.28905773275891 zlo zhi

Masses

1 12
2 1.008

Atoms # charge

814 2 0.05044635580269519 -14.026654712756935 -18.342869660810884 -16.505067796483583 -1 0 2
84 2 0.04665366087624288 -13.840457699922016 -18.431718850182527 -18.823405089848606 -1 0 2
88 1 -0.04657694012792342 -12.934888659342384 -17.972357657899472 -18.815782900477686 -1 0 2
815 1 -0.04523622172029337 -13.121838433517661 -17.900955763325882 -16.32005246841655 -1 0 2
7 2 0.0401782787231114 -15.582047719576856 -20.198910175301044 -18.76784457084273 -1 0 1
6 1 -0.05752976045659806 -16.456882467630518 -20.670914632639544 -19.093761432478153 -1 0 1
755 1 -0.04830075396623951 -13.650356453094972 -20.943893819742026 -15.797061412721993 -1 3 1
79 2 0.05776020031705129 -16.888962965246122 -18.205269059663546 -19.779771851103856 -1 0 1
81 1 -0.001083796437732393 -15.791392995516958 -14.173382806535834 -19.27319883406179 -2 0 0
881 1 -0.04719519436311897 -15.687940836344907 -13.45405007097253 -16.97206593026763 -2 0 0
80 1 -0.01351625551496468 -16.082003998040097 -15.172223804168185 -21.535895304175035 -2 0 0
756 1 -0.03616256112289192 -12.369751147386642 -20.52927516144357 -15.524232532820516 -1 3 1
83 1 -0.01578490264787754 -15.021760252853317 -14.00988974368984 -18.077086342720897 -2 0 0
885 2 0.05171136732115809 -15.187749827228817 -13.110169860100001 -16.101621495185586 -2 0 0
82 1 -0.003218531910147471 -15.21714748454033 -14.877434856462683 -20.3876578052404 -2 0 0
87 1 -0.04194701624113518 -13.560422822035171 -14.218273802588222 -18.08286680893567 -2 0 0
85 1 -0.01909474064435045 -13.7461525900955 -15.097687854578016 -20.295768244060923 -2 0 0
2 1 -0.02581742474082032 -17.63097599431577 -20.064453808294992 -19.680177978064883 -1 0 1
4 1 -0.04434923580865863 -17.694053587832464 -18.711537734471488 -20.144163689107263 -1 0 1
888 2 0.05588836944972691 -13.029607485431281 -14.048298838746339 -17.042403985580606 -2 0 0
89 1 -0.03901460188980446 -12.967476050272907 -14.76030377087153 -19.146927270375553 -2 0 0
86 1 -0.04797471604359287 -13.20780671811676 -15.577857857429418 -21.515102592668715 -2 0 0
90 2 0.05196697286156815 -12.514898808998485 -18.17084805138968 -20.84091192448301 -1 0 2
754 2 0.0462327524582463 -14.04809595916739 -21.15934523527338 -16.75426052348429 -1 3 1
92 1 -0.04718244908395673 -12.110546056014238 -17.974925851343883 -19.9356873045007 -1 0 2
91 2 0.05742287540127779 -12.177838764908236 -15.64436636104572 -21.673044568846176 -2 0 0
5 1 -0.05939451203995794 -16.479054700869003 -22.036074457626054 -18.774003198195 -1 0 1
752 2 0.04802937152551736 -15.560842697038257 -22.576833029960724 -18.4639406101827 -1 0 1
2258 1 -0.05082105289061734 -0.3185497146814781 -16.25070384113602 -6.863277892216079 -2 -1 0
159 2 0.0606368144474481 -14.114969770987852 -13.342054324313002 -22.075098647292016 1 -1 0
78 1 -0.0108088691687157 -17.240886615960534 -13.860981524078213 -19.166091142465827 -2 0 0
77 1 -0.01130407351179025 -17.493852995558587 -14.85047409039416 -21.542609600947962 -2 0 0
878 1 -0.05942436759372754 -17.039065033356056 -13.199248055499949 -16.872987204443483 -2 0 0
8 2 0.0452964846112893 -15.119262018329428 -20.62354213189932 -21.82977867915156 -1 0 1
817 1 -0.02073566734192783 -12.365900822942429 -17.68872385192779 -17.555789824723483 -1 0 2
3 2 0.06183702115524398 -17.477264659369492 -20.412860675242896 -21.89963190813655 -1 0 1
162 2 0.05274045655096909 -12.118687579080765 -13.137805422981865 -20.916561912608493 -1 4 0
750 2 0.04525805105434454 -17.0631249083322 -18.964353462922496 -15.883557717095634 -2 -1 0
877 2 0.0402828059396381 -17.402472424078944 -12.780057011002404 -16.017665675354795 -2 0 0
155 1 -0.04495195290929709 -17.831705726290355 -13.348415683358516 -17.994570934472268 -2 0 0
749 1 -0.05320014298172725 -17.49189351414081 -19.060641842834958 -14.931126493397576 -2 -1 0
9 2 0.0414779823210842 -13.21108992091192 -22.09131434231362 -20.557414872753924 0 0 2
818 1 -0.03792632413637222 -12.543043945996976 -17.51801966024427 -15.077289585544287 -1 0 2
2949 2 0.05670750767466361 -4.092351634983505 -16.730914875240646 -3.1253468873517423 1 0 -1
76 1 -0.007882367202379635 -18.002112123061636 -14.053217007836109 -20.404325842926195 -2 0 0
93 2 0.06845778606929412 -11.880170012448803 -15.055567083914656 -18.944596998418504 -2 0 0
891 2 0.05194426876848532 -11.663858383968407 -12.28601355921587 -16.77465210214827 -1 0 0
2957 1 -0.002473566899428768 -1.135236555093785 -14.26140485083977 -3.707410858950352 -2 -1 0
758 2 0.05714094251831799 -11.693312560749758 -20.626368464573208 -16.31368445630647 -1 3 1
11 2 0.05097515689373648 -12.169655520033244 -20.43493132382999 -18.57731405377707 0 0 2
16 1 -0.006273709283296108 -9.755288471593419 -21.606577653494718 -20.725181967141243 0 0 2
898 2 0.0533386168839589 -8.95880658928153 -11.494505861225305 -17.969420085742012 -1 4 0
172 1 -0.04870419932871704 -8.342558358552418 -12.07319011975019 -18.600468188189023 -1 4 0
98 1 -0.004752684885264331 -8.86852690074234 -13.900364655746628 -21.934160809654035 -1 4 0
94 1 -0.0420498933786675 -10.920428833147175 -17.19567241584958 -20.020096017780208 -1 0 2
96 2 0.05656338776718146 -10.37589692658511 -16.97846848862384 -20.9417710209525 -1 0 2
819 1 -0.005384806569112732 -11.070141767797546 -17.041467734297736 -17.548351445639916 -1 0 2
12 1 -0.04270785340509002 -11.16451235759182 -20.555961984360636 -19.038762143662357 0 0 2
820 1 -0.01370221701861313 -11.194933234881306 -17.125934052627635 -15.102475482154867 -1 0 2
165 1 -0.04847699877677132 -10.427175551208407 -12.685885141560474 -19.813304417011576 -1 4 0
97 1 -0.01790153145593683 -10.37943416554311 -16.776850555805375 -18.84544715465129 -1 0 2
821 1 -0.004315855792434622 -10.505444164678963 -16.723608086628566 -16.31911609099366 -1 0 2
760 2 0.05352012585867064 -9.78874386610385 -20.072824321854316 -14.841217382622366 -1 3 1
99 1 -0.03298079620414443 -9.026312740811038 -16.192707974859253 -18.801874923553026 -1 0 2
823 1 -0.005485241363233587 -9.085874334105299 -16.17265290227866 -16.271223852841445 -1 0 2
15 1 -0.04008003890368368 -10.044557651797117 -19.963429262115795 -18.51073363758753 0 0 2
761 2 0.0576323822011751 -10.144218347400965 -19.547877795745467 -17.540683183480457 0 0 2
100 2 0.06090090246853751 -8.609296037973092 -16.077668023926982 -19.78329163941677 -1 0 2
825 1 -0.01189432994075864 -8.37573915071483 -15.997284175402589 -17.592845178792512 -1 0 2
826 1 -0.01797044512311693 -8.384297729030266 -16.1798232948729 -15.03433112182561 -1 0 2
18 1 -0.02186252109781552 -8.778840131031213 -19.930479463736607 -19.118488088351544 0 0 2
829 1 -0.00730919937020915 -7.073386295000998 -16.12328622202337 -17.06323415210621 -1 0 2
19 1 -0.00936100090497036 -8.683321542034813 -20.727271954325342 -20.373353942472498 0 0 2
171 1 -0.006872176339949923 -8.241668759693491 -13.399292554934174 -20.799681400524964 -1 4 0
828 1 -0.008172855449309391 -7.039880316454517 -16.10137856507329 -15.552643885599224 -1 0 2
23 1 -0.0111714358273451 -7.524793835078035 -20.574988405309014 -21.182701793993573 0 0 2
895 2 0.06041195918045565 -9.910910012782407 -12.83663510959951 -15.13944089714227 -1 0 0
170 1 -0.02263189509953479 -9.004555538452278 -12.670909111988166 -19.76209051569776 -1 4 0
22 1 -0.04530867912869509 -7.499653284870609 -19.298606650174317 -18.708386864122144 0 0 2
163 1 -0.04741509298459426 -11.063688027069809 -13.28706011074088 -20.838612510898727 -1 4 0
95 1 -0.02023077459760741 -10.319847914502892 -13.67822442763084 -22.06324199420112 -1 4 0
164 2 0.05025655343346626 -10.971567789792424 -12.00592693389002 -19.155113221871083 -1 4 0
101 2 0.06157078031498391 -6.566343443739066 -15.863441067420911 -19.801685190828152 -1 0 2
21 2 0.05856162578563109 -7.601928367218162 -18.980426228749344 -17.724024635235793 0 0 2
13 1 -0.02146057573884049 -11.04903432745676 -21.539411096881537 -20.059957776949123 0 0 2
25 1 -0.02101037862604217 -6.333599413539442 -19.818657791561847 -20.82350690768437 0 0 2
24 1 -0.04704470267372139 -6.399082402592764 -19.16626764863757 -19.51804600614897 0 0 2
10 1 -0.05300288321038722 -12.122086752074727 -22.254281209237373 -20.710870659741808 0 0 2
173 1 -0.04039489160967126 -6.9942046390275046 -12.309008667693556 -18.435152664349655 -1 4 0
175 1 -0.006817985573892991 -6.771250455204673 -13.341820475727124 -20.67722186816334 -1 4 0
176 1 -0.009882148421663833 -6.127040892248901 -12.822028094301771 -19.499279675919745 -1 4 0
102 1 -0.01773547690897402 -6.028045154832528 -13.825609361952083 -21.81060585118547 -1 4 0
20 2 0.06830023151791514 -8.812428449328678 -18.923412172221145 -22.02994439509826 -1 0 1
17 1 -0.01622254788585207 -9.599917346901563 -22.46922562429314 -21.84740213675498 0 0 2
2827 1 -0.05076682777361935 -0.09930811316703378 -22.56357821796479 -6.654882475372802 -2 0 1
840 1 -0.000605385294687219 -0.08335061831059448 -18.256564020715437 -17.53162772662297 1 -1 1
906 2 0.06126130758313385 -4.391071212363369 -11.631141321472636 -17.51186481812257 -1 4 0
32 2 0.05068184825207044 -2.3963293039818567 -19.271259066227728 -19.17133645747997 1 -1 1
833 1 0.004287809934852001 -4.5730655291409095 -16.156934382779273 -15.507437764748614 -1 0 2
185 1 -0.002633131777098289 -2.524491374762852 -12.982360277995102 -20.68287491199632 -1 4 0
114 2 0.0485911363401319 -0.017174420598490878 -16.85076656132143 -22.064178324415327 1 -1 1
770 1 -0.01346014968996409 -3.1370950046489416 -20.9778261853412 -16.213323691931834 1 -1 1
772 1 0.008544804205569268 -2.0810332282442054 -20.338677794602525 -15.421573146405425 1 -1 1
2951 1 -0.004054179794186076 -3.6617198784347456 -13.953965895748581 -3.6173837191644953 -2 -1 0
6496 2 0.05861568087175167 -17.410664113929997 -22.2973709528955 -21.758525430233043 -2 0 0
189 1 -0.007820938273229581 -0.35905629828410485 -13.35664013219391 -21.704193699806563 -1 4 0
113 1 -0.04358292137473209 -0.15610368079510592 -17.60840012360319 -19.993084608202604 1 -1 1
2825 1 -0.0487637737521103 -1.1307647616066692 -22.652465984142033 -7.540943387894366 -2 0 1
188 1 -0.04950960630707519 -0.387084319687473 -11.985392600882118 -19.658609454435304 -1 4 0
187 1 0.001874270284650668 -1.7323483997365448 -13.665010317205088 -21.66925735281884 -1 4 0
26 2 0.05631974365055725 -5.55555511469938 -18.6828552477143 -19.146958065006093 0 0 2
106 1 -0.04532203503423815 -4.430856906925918 -15.83954727928249 -19.735836953650033 -1 0 2
35 1 -0.04226617569161831 -0.6078629949454731 -21.683726818755225 -19.849091386799522 -1 0 1
105 1 -0.0156630811469598 -4.5869097093489515 -13.670603636464692 -21.848465593896147 -1 4 0
107 2 0.05879277689410562 -4.391373521929089 -15.82369103779652 -20.777583531569697 -1 0 2
837 1 -0.03741611798720211 -2.0881592284407637 -15.592392394601264 -16.801273992536792 -1 0 2
33 1 -0.03888810594270074 -2.3464591660760648 -19.62305579056317 -18.189793640315735 1 -1 1
111 2 0.06087034193163515 -2.359776052861287 -15.44886496687119 -19.439498844600724 -1 0 2
775 1 0.009676658817019842 -1.1628963198460218 -19.356328725276345 -16.036087839799066 1 -1 1
838 2 0.05529347526129089 -1.1189324259600004 -15.429610839126774 -17.315256348590857 -1 0 2
186 1 -0.02049720995781773 -1.8853377788185046 -12.242967925097659 -19.600516197761216 -1 4 0
30 1 -0.05186377526900399 -4.111673336846162 -18.708704450202053 -21.476892959687348 0 0 2
832 1 0.003745867350227836 -4.571962953908648 -16.00124001934712 -16.956952882933837 -1 0 2
839 2 0.04766019642892715 -1.0690518853357294 -15.801934927692734 -15.013672746982508 -1 0 2
774 1 -0.004453550701975045 -1.3479421188093001 -18.971189754095366 -17.44845260413479 1 -1 1
181 1 -0.00283594271184349 -3.953613153410301 -13.2067374557444 -20.612071472418258 -1 4 0
104 1 -0.03673131061912373 -5.663030964099759 -15.962388406115835 -19.150870248326992 -1 0 2
112 2 0.04640419581906977 -1.147126094927455 -17.99709490348698 -20.239333083215133 1 -1 1
29 2 0.05083882183993234 -3.997593373640614 -21.00192806840397 -18.28794005226984 1 -1 1
108 1 -0.009379091933580452 -3.3310218705037435 -15.675395043817321 -17.599077344441056 -1 0 2
179 1 -0.007593031808251983 -4.708096216507253 -12.681037403005169 -19.561558650052497 -1 4 0
184 1 -0.04221047154631558 -2.6686741626448254 -11.75325134419109 -18.560512145626767 -1 4 0
34 2 0.05625578887829012 -1.5134836363556694 -21.86681457007093 -20.329382462926176 -1 0 1
27 1 -0.02136707900154421 -5.256828908584028 -19.536720294429333 -21.728034353069486 0 0 2
36 1 -0.0065731210091158 -0.2288997445198494 -22.187561234893074 -18.578940977569832 -1 0 1
836 1 -0.03983847240548365 -2.0711389037650414 -15.934661957729556 -15.479153458721536 -1 0 2
28 2 0.04803303864750672 -3.9350839785335734 -18.12263816890897 -20.620674323654683 0 0 2
2188 2 0.05755556205514888 -1.6921741092877358 -21.719386810233953 -5.2385382419046485 1 0 -1
180 1 -0.03484689298665949 -4.004518518722547 -12.072752152369686 -18.439506654108328 -1 4 0
767 1 -0.05087783767447652 -3.852722105695823 -22.10464115990652 -15.679694549311877 1 -1 1
830 1 -0.008174619078992511 -5.789324865981609 -16.23650396384314 -14.772628398293005 -1 0 2
103 1 -0.008381232032413279 -5.802123437790619 -16.04556095241972 -17.731445393190906 -1 0 2
835 1 -0.01308367265294579 -3.2832264098410455 -16.219037290903554 -14.774239222986388 -1 0 2
110 2 0.04343050058100604 -2.2802180833207686 -17.608607844416195 -22.28015264679717 0 0 2
109 1 -0.03782512007937457 -3.3067533220627285 -15.605917905106972 -19.001478640145226 -1 0 2
769 1 -0.04139204257599011 -3.2189474983864037 -20.56542313584876 -17.587415634224808 1 -1 1
766 2 0.04861599624406669 -4.383367860096947 -22.627681510786257 -16.452530868795918 1 -1 1
902 2 0.0552607748718069 -6.572787871589616 -12.019621767958302 -17.506064382743304 -1 4 0
1449 1 -0.01192603527697762 -14.088985336965017 -20.545986851879956 -13.334557912730329 -1 3 1
753 1 -0.04100506331943036 -14.524891794517753 -20.799699804001502 -14.70668594249611 -1 3 1
1445 2 0.06433781196615454 -16.047705349208982 -20.654034184219444 -12.424003989257406 -1 3 1
1451 1 0.002073513911612878 -12.699170796692822 -20.228549808922576 -13.097624940501962 -1 3 1
1522 1 -0.04448975090819406 -13.364067670872021 -15.974393852329555 -12.31392625727345 0 0 0
1447 1 -0.03783527514661434 -14.991644684552028 -20.465235610806296 -12.239712615441222 -1 3 1
883 1 -0.05217280935535898 -14.95845453551757 -12.856322169752913 -13.630578132607962 0 0 0
1518 2 0.04163845177809776 -17.506360039391872 -15.480937258182268 -13.070059667107898 -2 -1 0
1453 1 -0.0004338812243479487 -12.279111074518184 -19.921696116719485 -11.787024582524415 -1 3 1
879 2 0.04110875855072772 -15.844585586000141 -13.198168440909107 -14.100015595491115 0 0 0
1520 1 -0.01724793306874575 -14.065787384772737 -13.736052416617895 -12.974773313615378 0 0 0
813 2 0.04697731932466147 -15.125670304075356 -15.706075037403139 -13.387159833594866 0 0 0
1519 1 -0.04513848932937936 -14.281732207279084 -15.173926825270083 -12.912851972054506 0 0 0
1585 1 8.784158277725523e-06 -12.764262724566832 -13.212535188679384 -12.501138564896495 0 0 0
1587 1 0.001190456264902481 -12.436965377441306 -11.821829035620556 -12.73204487206681 0 0 0
751 2 0.05551746830854673 -15.630480844051487 -20.91727720053069 -14.802405337860389 -1 3 1
1523 1 -0.01769420995890581 -12.079452106930674 -15.501594414463591 -11.7494925360348 0 0 0
1521 2 0.05406864100728673 -13.648723220001674 -17.013312400295842 -12.204830194203872 0 0 0
812 2 0.04265321184553916 -16.975020215573778 -17.135516121949102 -14.31998026606829 -2 -1 0
811 1 -0.05044219388872924 -17.4502320810913 -18.079975971919335 -13.99186981314866 -2 -1 0
816 2 0.05725845472365446 -13.125482556826157 -17.65913956895517 -14.175041483242298 -1 0 2
884 1 -0.04794412469974887 -14.606366881516538 -11.606739585241586 -13.87139014982839 0 0 0
1517 1 -0.05357223244034027 -17.770797384023354 -15.764200687640676 -12.07229735066887 -2 -1 0
1444 1 -0.01604258370654482 -17.892508842627382 -18.200525700008964 -12.612902712037002 -2 -1 0
1514 1 -0.01760823203934575 -17.937417103116392 -17.148406820262487 -11.674643569344886 -2 -1 0
1516 2 0.04477259459016882 -17.71826419997119 -13.737739577598022 -11.60503601078081 -2 -1 0
1515 1 -0.05155821475517892 -17.882608455272912 -14.731319575448943 -11.213704563833426 -2 -1 0
2245 2 0.04736652600717896 -5.917840454127427 -15.467390863260611 -7.5180287698774455 -2 -1 0
2231 1 -0.03096195101354542 -14.469260835969635 -17.181891115066 -7.637347326610014 0 4 0
2234 1 -0.005498746153127058 -13.247985950249339 -16.565831417667624 -7.4366858913598755 0 4 0
2229 2 0.06133808963015527 -15.211253410097537 -16.884177653911838 -8.366093132312463 0 4 0
2232 2 0.06155181252826812 -13.97053780977781 -14.33326792737443 -8.805182987316643 0 4 0
2162 2 0.06247169282797155 -13.591204116124047 -19.31872681008555 -8.73218406241651 -1 3 1
1452 1 -0.04078990706645724 -12.771551236073776 -19.261152085980175 -9.475943032705674 -1 3 1
2154 2 0.05741512814167211 -16.255427837177464 -18.947253004334314 -8.16215934276519 0 4 0
2235 1 -0.0270241560672979 -12.966797149718332 -14.282820510683534 -8.441580766358237 0 4 0
1446 2 0.0547818969248171 -15.457893205041135 -19.772102317763355 -10.333687992969745 -1 3 1
1450 1 -0.01857302128919312 -13.322640176313577 -19.648598184298624 -10.756025171368943 -1 3 1
1448 1 -0.04269560855408217 -14.670582917504214 -19.939831352812448 -11.018678772640207 -1 3 1
2236 1 -0.00331079186012732 -12.435047333599908 -15.462668245193177 -7.807905966754238 0 4 0
1586 1 -0.0435642572065298 -12.728504625557589 -11.939000057961856 -8.903535698460539 0 4 0
2302 1 -0.01121127126610334 -12.178447154889028 -13.152130833509577 -8.382316625796438 0 4 0
1584 2 0.04609962579293989 -13.809463623185128 -11.83500480642369 -9.26906951596056 0 4 0
3509 2 0.05473327965697183 -7.13964873716733 -22.576242266224742 -1.3810996943468372 1 1 0
1525 1 0.002606791065762086 -11.893598984448898 -14.054613565520059 -11.79337736502399 0 0 0
757 1 -0.01258950914616389 -11.796013282408438 -20.155305647402436 -14.263821604000864 -1 3 1
1462 1 -0.007892531729444527 -8.025206410776953 -19.585682895878335 -11.01381708364866 -1 3 1
900 1 -0.01744267463099729 -8.245085785363477 -12.188604175125365 -13.962064155962368 -1 0 0
1527 2 0.06427878815230653 -10.935804811748906 -16.98451503807225 -13.049120306264873 -1 0 2
759 1 -0.03384085955927987 -10.418829968219207 -19.969750590169166 -13.97720584958922 -1 3 1
822 1 -0.0380098408146395 -10.41740481519857 -16.80566070314859 -13.879522682065932 -1 0 2
1458 1 -0.01409101034866874 -9.887029785205506 -19.786710083170092 -12.648354686510126 -1 3 1
824 1 -0.04764461543263165 -9.122574937047872 -16.363387035421116 -13.805962123331156 -1 0 2
1461 1 -0.01651728016902143 -8.512563773257256 -19.893775754494428 -12.328247257406868 -1 3 1
1532 2 0.05014381035818231 -8.667989480471071 -16.460234583274854 -12.809499208512916 -1 0 2
827 2 0.06305096057008081 -8.709921106632192 -14.27677977432255 -13.56674773546136 -1 0 0
762 2 0.0481077024865549 -7.869027608275414 -20.380762562840324 -14.366126360614702 -1 3 1
764 1 -0.04022258544425429 -6.147041505474899 -20.195608956324243 -13.125516860381671 -1 3 1
763 1 -0.04494940748994973 -7.519794135996826 -20.1538118391713 -13.383706486597188 -1 3 1
1598 1 -0.04140085077969505 -8.130732051897574 -13.4721753587925 -13.273873846058097 -1 0 0
897 1 -0.0372364093624046 -9.214829432543102 -12.104011541574817 -14.899973412662028 -1 0 0
1455 1 -0.00672813824537561 -10.879322683902933 -19.576522630662406 -11.551265650766606 -1 3 1
1593 1 -0.02260991600017402 -10.497481158137722 -12.048214478211909 -11.281103256966473 0 0 0
1600 1 -0.04555052786093347 -7.389747194014286 -13.519283911580178 -12.129121970004975 -1 0 0
1592 1 -0.007958172460409018 -10.66515892283313 -13.436796087556143 -11.16375413498581 0 0 0
1595 2 0.06855431773142538 -9.574815088363174 -11.662688149548092 -10.849015991388367 0 0 0
1533 2 0.04564282846263819 -7.43651279135798 -14.460239289720617 -11.481223935908483 -1 0 0
1602 1 -0.01661590540210784 -6.613874072610438 -12.380691764644261 -11.619779092773616 -1 0 0
1534 2 0.05564399857638079 -6.723484338483995 -16.668203373139566 -12.85973951338889 -1 0 2
1524 2 0.06350021072019509 -11.289644828129278 -17.291625825637396 -10.8439592860331 0 0 0
2174 2 0.06460595897472923 -8.55019778454061 -21.685844492626476 -9.015700805678424 0 1 1
1526 1 -0.04223217616652904 -11.194347113605858 -16.239286881567676 -10.981059707442565 0 0 0
2306 1 -0.000813546670934976 -10.018851934465905 -11.975103768034593 -8.171804492069365 0 4 0
1454 1 -0.0377620058799452 -11.399025621015921 -19.303512337596455 -9.282179167411329 -1 3 1
2168 2 0.0623368260570023 -11.231684364492212 -19.21707590778114 -8.21555869685582 -1 3 1
2303 1 -0.0004056256505361889 -10.798023796303626 -13.136447996914542 -7.8882966381213695 0 4 0
1531 2 0.0564374014553531 -8.862812100600083 -14.04584594763814 -10.000924389618095 0 0 0
2172 2 0.0524439669726297 -9.014966150381042 -18.34677517122104 -7.904402921046906 -1 3 1
1460 1 -0.02035391936283226 -8.905616831018191 -19.08185415786297 -9.961775732109349 -1 3 1
2175 1 -0.04350943056495386 -8.382039644008831 -18.71252332052671 -8.76452805768508 -1 3 1
2177 1 -0.01899382594308679 -6.9819230929668095 -18.740816756377978 -8.553480693649458 -1 3 1
1528 1 -0.04898474240151485 -10.032331642877448 -15.684719752120255 -10.424778846458493 0 0 0
1456 1 -0.01925590065919301 -10.37982008243604 -19.195857108592215 -10.274876171422635 -1 3 1
1530 2 0.05445972451554516 -9.405987703451904 -16.223399296273165 -9.83162468972557 0 0 0
2310 1 -0.02092116794215394 -8.638502052777424 -12.00105140058783 -7.60271644125112 0 4 0
1464 1 -0.0001921220188993086 -6.034338732915773 -19.269493941113776 -9.497081407422241 -1 3 1
1463 1 -0.002898037507861773 -6.5924552814918265 -19.552445665562452 -10.730326419337198 -1 3 1
2171 1 -0.03411753685791952 -9.47435001066694 -22.01736126391652 -8.593379064004253 0 1 1
1529 1 -0.03856597704966906 -9.77325810778336 -14.322008838217618 -10.488035318934433 0 0 0
1457 1 -0.007699825044339245 -10.44964424333949 -22.594725348502482 -9.495189916537896 0 1 1
2898 1 -0.05568732820917582 -0.9953954018159487 -21.747452123331655 -2.0663330623837313 1 1 0
776 1 -0.01441222513558901 -0.7157749720502129 -20.16609273686477 -13.269659186291635 1 -1 1
1536 1 -0.04987267356879496 -4.561575834317106 -16.680468044442897 -12.721014018376875 -1 0 2
765 2 0.06171264735147456 -5.345161763756081 -20.529463038205158 -13.753537921615616 -1 3 1
911 1 0.000467496298268982 -2.494362161747004 -11.375625507936315 -14.493074823109065 -1 0 1
904 2 0.06819518473910834 -5.424499683871905 -13.100750104302634 -14.285437585599988 -1 0 1
909 1 -0.01210450698747034 -3.9122984827860283 -11.548058866116964 -14.714530528969167 -1 0 1
1472 1 -0.04838618313646289 -1.3217247356202921 -21.794220820033548 -11.45805841636149 1 -1 1
1474 1 -0.04448359144953991 -0.6583783392664722 -20.652818757899485 -11.880348929681869 1 -1 1
771 1 -0.0215412494906472 -2.654093130091291 -21.80780305966914 -13.548601488053288 1 -1 1
1535 2 0.05962841239700623 -4.121583239849205 -14.631482850585344 -12.912016860247606 -1 0 1
831 1 -0.03925097372189115 -5.771972432171891 -16.51996653965712 -13.358670636372633 -1 0 2
1471 1 -0.05040713314092327 -2.3665839634231 -22.317470318414898 -12.215231877491702 1 -1 1
907 1 -0.02962403828733369 -4.40151325543177 -12.780465222901785 -14.16999251939878 -1 0 1
1467 1 -0.04065880533770055 -4.259159325520301 -20.149576991977362 -11.499987119219206 -1 3 1
768 1 -0.05158337944460312 -3.615335948412808 -22.44273200766008 -14.408836092839564 1 -1 1
773 1 0.002281300684405442 -1.9079083941870707 -20.706934343811042 -14.05436683923937 1 -1 1
1538 2 0.04535019237061076 -2.3361836041152655 -16.79945464780905 -13.025929537129773 -1 0 2
1609 1 -0.04253338361821535 -3.6864770996152925 -13.72844457956364 -13.38674739619756 -1 0 1
1539 2 0.04184439681029822 -1.8060001275911353 -14.250008574317574 -12.537529312605578 -1 0 1
1612 1 -0.04744066127812637 -2.3564457817913183 -13.576399699235 -13.17521904178667 -1 0 1
1469 2 0.06736858544422539 -3.5665704459271197 -20.562258211002646 -12.178401822152047 -1 3 1
914 1 -0.01496604474830196 -1.6655392695504228 -12.451522815281688 -13.847078713101526 -1 0 1
834 1 -0.04960450838493949 -3.305991286863648 -16.580530133684587 -13.387400182992527 -1 0 2
1465 1 -0.01554994947358752 -5.637964805803171 -20.01356254217974 -11.79312180220598 -1 3 1
1537 2 0.04989875281948088 -4.442620779522919 -16.91676594698858 -11.633407984651155 -1 0 2
916 1 -0.03708461777189157 -0.2573855704926151 -12.385404508127406 -13.825033596950815 -1 0 1
2189 2 0.04758217023246358 -1.7200688613791915 -21.871648450867198 -8.011377861445565 -2 0 1
1615 1 -0.04856476831409023 -1.1600232692044607 -12.389184076831368 -10.199428989761817 1 0 0
1613 2 0.04606403592478928 -1.6853333939168882 -13.301318842980578 -9.982310572686776 1 0 0
1604 1 -0.04762261889652003 -5.903004168258716 -12.499705858795352 -10.420217302751684 -1 0 0
1605 2 0.04539804711960872 -5.772482582009323 -13.389930822404548 -9.749220399776183 -1 0 0
2257 2 0.05527645569584442 -0.1973931495177144 -14.240062784507124 -8.361335296245601 1 0 0
1466 1 -0.01813082740864452 -4.585012283213016 -19.436683734929748 -9.217013464216668 -1 3 1
1470 2 0.04621242045129402 -2.6283744192463785 -19.905368716046425 -10.09389393731603 -1 3 1
2256 2 0.03952779880508928 -1.7138128720041292 -16.85035547534085 -8.445982648794432 -2 -1 0
2254 1 -0.05383125364741705 -1.4997498399010172 -16.32457736354475 -7.505549235373039 -2 -1 0
2182 1 -0.04204408379990042 -4.149033425018868 -19.127478154646827 -7.910830616564561 -1 3 1
2249 2 0.04836342780270325 -3.7172550324735614 -16.183977816223425 -8.552322044324935 -2 -1 0
2322 2 0.05498433267136617 -2.5088890144466784 -12.143886909506715 -7.339246867895992 -1 0 0
2184 2 0.05300166113283723 -3.1464683212291678 -19.226831278335858 -7.595484437636599 -1 3 1
1468 1 -0.04984732430690354 -3.691912221100963 -19.839799674449807 -10.256581723701938 -1 3 1
2251 1 -0.04716979436574585 -3.866429913327526 -15.68571408148619 -7.623908728187198 -2 -1 0
1473 2 0.05601598302434044 -1.0722396519095572 -22.228064090394035 -10.510781399533071 1 -1 1
2874 1 -0.03618491771335441 -13.992573935775605 -18.435969364345066 -1.989847414351758 2 -1 0
2161 1 0.006433461387925766 -13.927307901118665 -18.90616357187254 -5.918048755212682 0 4 0
2159 1 -0.01685998413047548 -14.835771101124728 -18.40683162711489 -6.968651889508285 0 4 0
2160 1 -0.01125806867520688 -14.169056982504033 -20.201942282606247 -5.28427548837658 0 4 0
2930 1 0.0009284362884064336 -14.381075401018599 -16.27044658274652 -3.7345557452413094 2 -1 0
2230 1 0.004436437599343902 -14.519507934077886 -15.18157656917071 -4.64917889582372 2 -1 0
2233 1 -0.0126026222551564 -13.470397420278506 -14.210139472238254 -4.847206399678643 2 -1 0
2929 1 -0.0353329687540624 -15.26120654146741 -18.296577654959783 -2.5360206421512665 2 -1 0
2928 1 -0.01540920719657445 -15.513806527772067 -17.16463712526668 -3.386041725324228 2 -1 0
2871 2 0.06486110317023816 -16.077999023498123 -18.95018060772696 -2.2701009759040587 2 -1 0
2228 1 -0.01281033909804084 -15.864811057512178 -15.048943579723659 -5.256737818261458 2 -1 0
2157 1 -0.04287732950527402 -15.353371161354518 -20.93932034696316 -5.548788886487358 0 4 0
2156 1 -0.04246576687530253 -15.941294636823958 -19.280479681596187 -7.239596769828326 0 4 0
2927 2 0.06547737006742595 -15.56739376905874 -15.251363385150993 -2.1901754914756766 1 -1 0
2932 1 0.0006478721483850931 -13.10443119971429 -16.3791185527694 -3.082557253559861 2 -1 0
2933 1 -0.008587173482007215 -12.899997087844577 -17.581117108725103 -2.270812849650706 2 -1 0
2873 2 0.05750857483696117 -13.693931881666428 -19.228660460134265 -1.3379365159978482 2 -1 0
2226 1 -0.03860600475249825 -16.677638982004417 -17.05700867094384 -4.172697051765184 2 -1 0
2926 1 -0.04155021687724783 -16.110133807578478 -14.521592087464509 -1.5693979912536238 1 -1 0
2155 1 -0.05087414136808247 -16.14899006368844 -20.499638435823012 -6.566364775564026 0 4 0
2158 2 0.05892359276280364 -15.519888113119391 -21.79005437073465 -4.938387357709566 0 4 0
2227 1 -0.04815791237974264 -16.115433330110072 -13.965690958412885 -6.183472977680586 2 -1 0
2300 1 -0.03696694111130069 -13.774419536298566 -13.211588116473008 -5.853423921726779 2 -1 0
2872 1 -0.01605522585096895 -15.681096371262974 -21.628290764518596 -0.9043724733649492 0 0 1
2986 1 -0.0215387923008748 -15.501052996209795 -13.254551880461722 -1.2860470690257262 1 -1 0
2875 2 0.05063632938081357 -13.292936266217886 -21.792794705797 -4.076428525031748 0 4 0
2931 2 0.05931398946014345 -13.642606615352266 -13.600476875484812 -2.3232560102876745 1 -1 0
2989 1 -0.0410102270814627 -14.253719635946064 -12.813152518534764 -1.8555126763714582 1 -1 0
2153 2 0.04326620976482047 -16.87235900067838 -21.227568616981923 -6.91265395233978 0 4 0
2876 1 -0.04600984491890127 -13.139435465491994 -20.85710083250828 -4.554541136953166 0 4 0
2163 1 0.004692339954692855 -12.63509047525791 -18.37376366802862 -5.790139656209594 0 4 0
2299 1 -0.05538441874445858 -15.094172395009757 -13.060239749375317 -6.427494345687474 2 -1 0
2877 2 0.05166655592185204 -11.912615681710097 -19.839588921488588 -1.105690977710984 2 -1 0
2984 1 -0.0002577636911196227 -16.306970878246737 -12.32017223708072 -0.5567977106727227 1 -1 0
2301 2 0.06041555708915204 -12.950878883756285 -12.519068156344497 -5.9590362282490945 2 -1 0
2934 1 -0.03667111862580484 -12.243311604078633 -14.360335943837631 -4.185429307493203 2 -1 0
2935 1 -0.01163828753069123 -12.072426160210489 -15.40583516147857 -3.271183145968051 2 -1 0
2223 2 0.06555729478956844 -17.709342913145647 -15.923229485023082 -5.747524325786369 2 -1 0
2990 1 -0.02034897075095177 -13.852289912794106 -11.51869129509688 -1.749639233317738 1 -1 0