LAMMPS data file via write_data, version 8 Feb 2023, timestep = 1000000 > bond_react_merge_prep: v1.3 / 4 November 2023

828 atoms
816 bonds
1584 angles
2280 dihedrals
1032 impropers

7 atom types
9 bond types
17 angle types
16 dihedral types
12 improper types

-9.800869334398929 9.800869334398929 xlo xhi
-9.482470369365277 9.482470369365277 ylo yhi
-14.242589877641368 14.242589877641368 zlo zhi

Masses

 1   12.01115  # c2
 2   12.01115  # c3
 3   12.01115  # c=
 4   12.01115  # c=1
 5   1.00797   # h
 6   1.00797   # hpan
 7   28.08600  # si

Pair Coeffs  # lj/class2/coul/cut

 1        0.05400000      4.01000000 # c2
 2        0.05400000      3.90000000 # c3
 3        0.06400000      3.90000000 # c=
 4        0.06400000      4.01000000 # c=1
 5        0.02000000      2.99500000 # h
 6        0.02000000      2.30000000 # hpan
 7        0.19000000      4.45000000 # si

Bond Coeffs  # class2

 1        1.10100000             345   -691.89000000    844.60000000 # c2        hpan   
 2        1.89950000    189.65400000   -279.42100000    307.51400000 # c2          si   
 3        1.50600000    312.35200000   -582.18600000    339.89700000 # c2         c=1   
 4        1.10100000             345   -691.89000000    844.60000000 # c3        hpan   
 5        1.89950000    189.65400000   -279.42100000    307.51400000 # c3          si   
 6        1.34000000    543.99000000  -1238.20000000   1644.03000000 # c=         c=1   
 7        1.08830000    365.76800000   -725.54000000    781.66200000 # c=        hpan   
 8        1.08830000    365.76800000   -725.54000000    781.66200000 # c=1       hpan   
 9        1.47830000    202.78000000   -305.36000000    280.26900000 # h           si   

Angle Coeffs  # class2

 1      126.26000000     43.82500000    -27.72660000      1.00560000 # c2        c=1         c=   
 2      117.27000000     30.09440000     -8.08260000     -8.67810000 # c2        c=1       hpan   
 3      113.18600000     36.20690000    -20.39390000     20.01720000 # c2         si         c2   
 4      113.18600000     36.20690000    -20.39390000     20.01720000 # c2         si         c3   
 5      112.09800000     36.48320000    -12.80940000               0 # c2         si          h   
 6      112.09800000     36.48320000    -12.80940000               0 # c3         si          h   
 7      124.88000000     35.27660000    -17.77400000     -1.62150000 # c=        c=1       hpan   
 8      110.06000000     41.27840000    -14.29630000      5.22290000 # c=1        c2       hpan   
 9      112.30000000     34.60000000               0               0 # c=1        c2         si   
10      124.88000000     35.27660000    -17.77400000     -1.62150000 # c=1        c=       hpan   
11      108.60500000     32.54150000     -8.31640000               0 # h          si          h   
12      107.66000000     39.64100000    -12.92100000     -2.43180000 # hpan       c2       hpan   
13      112.03500000     28.77210000    -13.95230000               0 # hpan       c2         si   
14      107.66000000     39.64100000    -12.92100000     -2.43180000 # hpan       c3       hpan   
15      112.03500000     28.77210000    -13.95230000               0 # hpan       c3         si   
16      115.49000000     29.63630000    -12.48530000     -6.22180000 # hpan       c=       hpan   
17      112.30000000     34.60000000               0               0 # si         c2         si   

Dihedral Coeffs  # class2

 1                 0               0               0               0      0.21100000               0 # c=        c=1        c2         si   
 2                 0               0               0               0      0.11110000               0 # c=1        c2        si         c2   
 3                 0               0               0               0      0.11110000               0 # c=1        c2        si          h   
 4        0.11430000               0               0               0      0.18540000               0 # hpan       c2       c=1         c=   
 5       -0.11430000               0               0               0     -0.13490000               0 # hpan       c2       c=1       hpan   
 6                 0               0               0               0     -0.06570000               0 # hpan       c2        si         c2   
 7                 0               0               0               0     -0.06570000               0 # hpan       c2        si         c3   
 8                 0               0               0               0     -0.06570000               0 # hpan       c2        si          h   
 9                 0               0               0               0     -0.06570000               0 # hpan       c3        si         c2   
10                 0               0               0               0     -0.06570000               0 # hpan       c3        si          h   
11                 0               0      5.20970000               0               0               0 # hpan       c=       c=1         c2   
12                 0               0      4.89740000               0               0               0 # hpan       c=       c=1       hpan   
13                 0               0               0               0      0.21100000               0 # hpan      c=1        c2         si   
14                 0               0               0               0      0.11110000               0 # si         c2        si         c2   
15                 0               0               0               0      0.11110000               0 # si         c2        si         c3   
16                 0               0               0               0      0.11110000               0 # si         c2        si          h   

Improper Coeffs  # class2

 1        2.07650000               0 # c2        c=1        c=       hpan     nb==3   
 2        2.85610000               0 # c=1        c=       hpan      hpan     nb==3   
 3                 0               0 # c2         si        c2        h       nb!=3   
 4                 0               0 # c2         si        c3        h       nb!=3   
 5                 0               0 # c2         si        h         h       nb!=3   
 6                 0               0 # c3         si        h         h       nb!=3   
 7                 0               0 # c=1        c2       hpan      hpan     nb!=3   
 8                 0               0 # c=1        c2       hpan       si      nb!=3   
 9                 0               0 # hpan       c2       hpan       si      nb!=3   
10                 0               0 # hpan       c2        si        si      nb!=3   
11                 0               0 # hpan       c3       hpan      hpan     nb!=3   
12                 0               0 # hpan       c3       hpan       si      nb!=3   

BondBond Coeffs

 1       17.79130000      1.50600000      1.34000000 # c2        c=1         c=   
 2        3.43940000      1.50600000      1.08830000 # c2        c=1       hpan   
 3        3.74190000      1.89950000      1.89950000 # c2         si         c2   
 4        3.74190000      1.89950000      1.89950000 # c2         si         c3   
 5        3.92640000      1.89950000      1.47830000 # c2         si          h   
 6        3.92640000      1.89950000      1.47830000 # c3         si          h   
 7       10.10470000      1.34000000      1.08830000 # c=        c=1       hpan   
 8        9.99220000      1.50600000      1.10100000 # c=1        c2       hpan   
 9                 0      1.50600000      1.89950000 # c=1        c2         si   
10       10.10470000      1.34000000      1.08830000 # c=1        c=       hpan   
11        4.64080000      1.47830000      1.47830000 # h          si          h   
12        5.33160000      1.10100000      1.10100000 # hpan       c2       hpan   
13        1.65610000      1.10100000      1.89950000 # hpan       c2         si   
14        5.33160000      1.10100000      1.10100000 # hpan       c3       hpan   
15        1.65610000      1.10100000      1.89950000 # hpan       c3         si   
16        4.85060000      1.08830000      1.08830000 # hpan       c=       hpan   
17                 0      1.89950000      1.89950000 # si         c2         si   

BondAngle Coeffs

 1       31.58850000     24.22520000      1.50600000      1.34000000 # c2        c=1         c=   
 2       17.64520000     15.34920000      1.50600000      1.08830000 # c2        c=1       hpan   
 3       18.58050000     18.58050000      1.89950000      1.89950000 # c2         si         c2   
 4       18.58050000     18.58050000      1.89950000      1.89950000 # c2         si         c3   
 5       13.39610000      7.41040000      1.89950000      1.47830000 # c2         si          h   
 6       13.39610000      7.41040000      1.89950000      1.47830000 # c3         si          h   
 7       23.35880000     19.05920000      1.34000000      1.08830000 # c=        c=1       hpan   
 8       20.87670000     14.27410000      1.50600000      1.10100000 # c=1        c2       hpan   
 9                 0               0      1.50600000      1.89950000 # c=1        c2         si   
10       23.35880000     19.05920000      1.34000000      1.08830000 # c=1        c=       hpan   
11        9.34670000      9.34670000      1.47830000      1.47830000 # h          si          h   
12       18.10300000     18.10300000      1.10100000      1.10100000 # hpan       c2       hpan   
13       16.69080000     18.27640000      1.10100000      1.89950000 # hpan       c2         si   
14       18.10300000     18.10300000      1.10100000      1.10100000 # hpan       c3       hpan   
15       16.69080000     18.27640000      1.10100000      1.89950000 # hpan       c3         si   
16       17.97950000     17.97950000      1.08830000      1.08830000 # hpan       c=       hpan   
17                 0               0      1.89950000      1.89950000 # si         c2         si   

AngleAngleTorsion Coeffs

 1                 0    126.26000000    112.30000000 # c=        c=1        c2         si   
 2                 0    112.30000000    113.18600000 # c=1        c2        si         c2   
 3                 0    112.30000000    112.09800000 # c=1        c2        si          h   
 4      -13.68260000    110.06000000    126.26000000 # hpan       c2       c=1         c=   
 5      -10.95120000    110.06000000    117.27000000 # hpan       c2       c=1       hpan   
 6      -17.58020000    112.03500000    113.18600000 # hpan       c2        si         c2   
 7      -17.58020000    112.03500000    113.18600000 # hpan       c2        si         c3   
 8      -12.93410000    112.03500000    112.09800000 # hpan       c2        si          h   
 9      -17.58020000    112.03500000    113.18600000 # hpan       c3        si         c2   
10      -12.93410000    112.03500000    112.09800000 # hpan       c3        si          h   
11       -7.69120000    124.88000000    126.26000000 # hpan       c=       c=1         c2   
12       -7.00580000    124.88000000    124.88000000 # hpan       c=       c=1       hpan   
13                 0    117.27000000    112.30000000 # hpan      c=1        c2         si   
14                 0    112.30000000    113.18600000 # si         c2        si         c2   
15                 0    112.30000000    113.18600000 # si         c2        si         c3   
16                 0    112.30000000    112.09800000 # si         c2        si          h   

EndBondTorsion Coeffs

 1                 0               0               0               0               0               0      1.34000000      1.89950000 # c=        c=1        c2         si   
 2                 0               0               0               0               0               0      1.50600000      1.89950000 # c=1        c2        si         c2   
 3                 0               0               0               0               0               0      1.50600000      1.47830000 # c=1        c2        si          h   
 4        1.97870000               0     -0.18050000      0.85660000               0      0.08110000      1.10100000      1.34000000 # hpan       c2       c=1         c=   
 5        0.22120000               0      0.09150000      0.59340000               0      0.04240000      1.10100000      1.08830000 # hpan       c2       c=1       hpan   
 6                 0               0               0               0               0               0      1.10100000      1.89950000 # hpan       c2        si         c2   
 7                 0               0               0               0               0               0      1.10100000      1.89950000 # hpan       c2        si         c3   
 8                 0               0               0               0               0               0      1.10100000      1.47830000 # hpan       c2        si          h   
 9                 0               0               0               0               0               0      1.10100000      1.89950000 # hpan       c3        si         c2   
10                 0               0               0               0               0               0      1.10100000      1.47830000 # hpan       c3        si          h   
11        0.54060000     -0.16110000               0     -0.22010000      0.67700000               0      1.08830000      1.50600000 # hpan       c=       c=1         c2   
12        0.71290000      0.51610000               0      0.71290000      0.51610000               0      1.08830000      1.08830000 # hpan       c=       c=1       hpan   
13                 0               0               0               0               0               0      1.08830000      1.89950000 # hpan      c=1        c2         si   
14                 0               0               0               0               0               0      1.89950000      1.89950000 # si         c2        si         c2   
15                 0               0               0               0               0               0      1.89950000      1.89950000 # si         c2        si         c3   
16                 0               0               0               0               0               0      1.89950000      1.47830000 # si         c2        si          h   

MiddleBondTorsion Coeffs

 1                 0               0               0      1.50600000 # c=        c=1        c2         si   
 2                 0               0               0      1.89950000 # c=1        c2        si         c2   
 3                 0               0               0      1.89950000 # c=1        c2        si          h   
 4       -1.57270000               0      0.65650000      1.50600000 # hpan       c2       c=1         c=   
 5        1.87300000               0     -0.37020000      1.50600000 # hpan       c2       c=1       hpan   
 6                 0               0               0      1.89950000 # hpan       c2        si         c2   
 7                 0               0               0      1.89950000 # hpan       c2        si         c3   
 8                 0               0     -0.59060000      1.89950000 # hpan       c2        si          h   
 9                 0               0               0      1.89950000 # hpan       c3        si         c2   
10                 0               0     -0.59060000      1.89950000 # hpan       c3        si          h   
11        1.12200000      6.06690000               0      1.34000000 # hpan       c=       c=1         c2   
12        0.85580000      6.39110000               0      1.34000000 # hpan       c=       c=1       hpan   
13                 0               0               0      1.50600000 # hpan      c=1        c2         si   
14                 0               0               0      1.89950000 # si         c2        si         c2   
15                 0               0               0      1.89950000 # si         c2        si         c3   
16                 0               0               0      1.89950000 # si         c2        si          h   

BondBond13 Coeffs

 1                 0      1.34000000      1.89950000 # c=        c=1        c2         si   
 2                 0      1.50600000      1.89950000 # c=1        c2        si         c2   
 3                 0      1.50600000      1.47830000 # c=1        c2        si          h   
 4                 0      1.10100000      1.34000000 # hpan       c2       c=1         c=   
 5                 0      1.10100000      1.08830000 # hpan       c2       c=1       hpan   
 6                 0      1.10100000      1.89950000 # hpan       c2        si         c2   
 7                 0      1.10100000      1.89950000 # hpan       c2        si         c3   
 8                 0      1.10100000      1.47830000 # hpan       c2        si          h   
 9                 0      1.10100000      1.89950000 # hpan       c3        si         c2   
10                 0      1.10100000      1.47830000 # hpan       c3        si          h   
11                 0      1.08830000      1.50600000 # hpan       c=       c=1         c2   
12                 0      1.08830000      1.08830000 # hpan       c=       c=1       hpan   
13                 0      1.08830000      1.89950000 # hpan      c=1        c2         si   
14                 0      1.89950000      1.89950000 # si         c2        si         c2   
15                 0      1.89950000      1.89950000 # si         c2        si         c3   
16                 0      1.89950000      1.47830000 # si         c2        si          h   

AngleTorsion Coeffs

 1                 0               0               0               0               0               0    126.26000000    112.30000000 # c=        c=1        c2         si   
 2                 0               0               0               0               0               0    112.30000000    113.18600000 # c=1        c2        si         c2   
 3                 0               0               0               0               0               0    112.30000000    112.09800000 # c=1        c2        si          h   
 4        1.59820000               0               0     -1.88730000               0               0    110.06000000    126.26000000 # hpan       c2       c=1         c=   
 5        1.90610000               0               0     -0.06770000               0               0    110.06000000    117.27000000 # hpan       c2       c=1       hpan   
 6                 0               0      0.33820000               0               0      0.42720000    112.03500000    113.18600000 # hpan       c2        si         c2   
 7                 0               0      0.33820000               0               0      0.42720000    112.03500000    113.18600000 # hpan       c2        si         c3   
 8                 0               0               0               0               0     -0.14230000    112.03500000    112.09800000 # hpan       c2        si          h   
 9                 0               0      0.33820000               0               0      0.42720000    112.03500000    113.18600000 # hpan       c3        si         c2   
10                 0               0               0               0               0     -0.14230000    112.03500000    112.09800000 # hpan       c3        si          h   
11       -1.51760000      3.71120000               0     -5.40820000      1.47310000               0    124.88000000    126.26000000 # hpan       c=       c=1         c2   
12       -1.89110000      3.25400000               0     -1.89110000      3.25400000               0    124.88000000    124.88000000 # hpan       c=       c=1       hpan   
13                 0               0               0               0               0               0    117.27000000    112.30000000 # hpan      c=1        c2         si   
14                 0               0               0               0               0               0    112.30000000    113.18600000 # si         c2        si         c2   
15                 0               0               0               0               0               0    112.30000000    113.18600000 # si         c2        si         c3   
16                 0               0               0               0               0               0    112.30000000    112.09800000 # si         c2        si          h   

AngleAngle Coeffs

 1                 0               0               0    126.26000000    124.88000000    117.27000000 # c2        c=1        c=       hpan     nb==3   
 2                 0               0               0    124.88000000    115.49000000    124.88000000 # c=1        c=       hpan      hpan     nb==3   
 3        3.38270000      3.38270000      2.79630000    113.18600000    112.09800000    112.09800000 # c2         si        c2        h       nb!=3   
 4        3.38270000      3.38270000      2.79630000    113.18600000    112.09800000    112.09800000 # c2         si        c3        h       nb!=3   
 5        4.45590000      4.68090000      4.45590000    112.09800000    112.09800000    108.60500000 # c2         si        h         h       nb!=3   
 6        4.45590000      4.68090000      4.45590000    112.09800000    112.09800000    108.60500000 # c3         si        h         h       nb!=3   
 7       -0.11410000     -8.24640000     -0.11410000    110.06000000    110.06000000    107.66000000 # c=1        c2       hpan      hpan     nb!=3   
 8                 0               0               0    110.06000000    112.03500000    112.30000000 # c=1        c2       hpan       si      nb!=3   
 9                 0               0      2.20500000    107.66000000    112.03500000    112.03500000 # hpan       c2       hpan       si      nb!=3   
10                 0               0               0    112.03500000    112.30000000    112.03500000 # hpan       c2        si        si      nb!=3   
11       -0.31570000     -0.31570000     -0.31570000    107.66000000    107.66000000    107.66000000 # hpan       c3       hpan      hpan     nb!=3   
12                 0               0      2.20500000    107.66000000    112.03500000    112.03500000 # hpan       c3       hpan       si      nb!=3   

Atoms # full

 644    10  7   0.522000   -5.652974120    -8.044242673    -10.237192814  1  3  3  
 637    10  1  -0.376000   -5.136705949    -6.221832587    -9.770862467   1  3  3  
 676    10  5  -0.126000   -7.873836959    -5.965847386    -9.836753823   1  3  3  
 638    10  7   0.522000   -6.658510259    -5.114892924    -10.081971000  1  3  3  
 677    10  5  -0.126000   -6.491631146    -4.155582795    -9.025303351   1  3  3  
 674    10  6   0.053000   -4.809569540    -6.201135033    -8.667360225   1  3  3  
 639    10  1  -0.376000   -7.030102440    -4.270595538    -11.803636209  1  3  3  
 675    10  6   0.053000   -4.281875672    -5.943725730    -10.342154785  1  3  3  
  41    1   6   0.053000   -5.538083161    -1.725817732    -8.842540352   1  1  2  
 679    10  6   0.053000   -7.485378257    -5.042957569    -12.490029912  1  3  3  
 678    10  6   0.053000   -6.328745511    -3.660881055    -12.431265115  1  3  3  
 690    10  5  -0.126000   -7.108037498    -8.269825979    -10.579603477  1  3  3  
 643    10  7   0.522000   -8.439949902    -3.162867688    -11.189071313  1  3  3  
 687    10  5  -0.126000   -9.216219651    -3.862287376    -10.171449450  1  3  3  
  66    1   5  -0.126000   -5.137811712    -5.618329406    -13.402670147  1  1  2  
 640    10  1  -0.376000   -9.421857860    -2.864584246    -12.820057127  1  3  3  
 641    10  7   0.522000   -8.436884219    -1.501612268    -13.699803407  1  3  3  
 688    10  5  -0.126000   -7.982493773    -1.874189003    -10.584149991  1  3  3  
  21    1   2  -0.294000   -6.360595705    -8.315504776    -13.893540713  1  1  2  
 719    11  5  -0.126000   -9.351099158    -6.644438759    -11.469694196  0  1  1  
 689    10  5  -0.126000   -4.962938226    -8.628888240    -11.415125712  1  3  3  
  42    1   6   0.053000   -7.229338005    -1.727795044    -8.418812667   1  1  2  
 685    10  6   0.053000   -5.863040537    -2.025041980    -13.834592938  1  3  3  
  63    1   6   0.053000   -6.784593219    -7.550788428    -13.217126477  1  1  2  
 723    11  5  -0.126000   -9.342123038    -7.955148443    -13.569742628  0  1  1  
 680    10  6   0.053000   -9.507222166    -3.767017656    -13.469311990  1  3  3  
  39    1   6   0.053000   -4.484735388    -3.382751610    -7.292519757   1  1  2  
  10    1   1  -0.376000   -6.284533595    -1.261473402    -8.119861023   1  1  2  
  14    1   1  -0.376000   -4.034184416    -1.045885385    -11.706504727  1  1  2  
  49    1   6   0.053000   -4.862290907    -1.684334860    -11.498644639  1  1  2  
 720    11  5  -0.126000   -9.792120541    -8.321426018    -9.891769603   0  1  1  
  64    1   6   0.053000   -7.044029754    -9.117220132    -13.900841937  1  1  2  
 670    10  6   0.053000   -5.289030967    -8.892994770    -7.845796866   1  3  3  
  50    1   6   0.053000   -3.952408577    -0.976064415    -12.795115437  1  1  2  
 635    10  1  -0.376000   -5.110536287    -9.294095130    -8.795725276   1  3  3  
  65    1   6   0.053000   -5.417682628    -8.629830550    -13.338240873  1  1  2  
 683    10  5  -0.126000   -8.307863680    -0.281916005    -12.903401125  1  3  3  
  54    1   6   0.053000   -3.059487596    -4.395569227    -11.576891308  1  1  2  
  16    1   1  -0.376000   -2.320543197    -3.616685989    -11.663135408  1  1  2  
  53    1   6   0.053000   -1.550379265    -4.064565552    -11.041340072  1  1  2  
  23    1   7   0.522000   -2.586763843    -1.911790348    -10.897614637  1  1  2  
  17    1   7   0.522000   -2.076972024    -3.442080084    -13.556060056  1  1  2  
  69    1   5  -0.126000   -2.764836412    -1.822363718    -9.439835931   1  1  2  
 549    8   5  -0.126000   -0.633035129    -6.577302280    -11.885567043  0  1  0  
  68    1   5  -0.126000   -1.327493617    -1.066023046    -11.096757783  1  1  2  
 505    8   7   0.522000   -0.618788440    -7.321853053    -10.647762053  0  1  0  
 501    8   1  -0.376000   -1.487579833    -6.215524468    -9.376859227   0  1  0  
 540    8   6   0.053000   -2.146830918    -6.790989668    -8.699054314   0  1  0  
  56    1   5  -0.126000   -0.759038530    -2.887837136    -13.893591308  1  1  2  
 541    8   6   0.053000   -2.079961330    -5.482399940    -9.990753438   0  1  0  
 444    7   5  -0.126000    1.705205325    -3.829263352    -11.890427189  -1 0  0  
 445    7   6   0.053000    1.808620151    -5.748743884    -14.144128766  -1 0  0  
 550    8   5  -0.126000    0.824712123    -7.589314517    -10.446118257  0  1  0  
 419    7   1  -0.376000    2.888282079    -5.356310902    -14.013197012  -1 0  0  
 500    8   7   0.522000   -0.146787945    -5.343822662    -8.435968629   0  1  0  
 538    8   5  -0.126000   -0.704678607    -4.248750756    -7.746732552   0  1  0  
 421    7   1  -0.376000    2.926177626    -8.125421514    -13.208168620  -1 0  0  
 449    7   6   0.053000    1.990218261    -7.593761200    -12.786367751  -1 0  0  
 539    8   5  -0.126000    0.880310549    -4.836967022    -9.429195704   0  1  0  
 183    3   6   0.053000    1.270046312    -1.485473480    -9.102933651   0  1  -2 
 418    7   7   0.522000    3.034505456    -4.276246607    -12.426153839  -1 0  0  
  55    1   5  -0.126000   -2.870412774    -2.413703246    -14.122909575  1  1  2  
 545    8   5  -0.126000    0.276617940    -9.236079779    -12.911890177  0  1  0  
 543    8   6   0.053000   -2.647639251    -8.879756158    -10.591164166  0  1  0  
 533    8   6   0.053000    2.166795418    -3.764678975    -8.290760996   0  1  0  
 499    8   1  -0.376000    0.794797972    -6.390364582    -7.221571696   0  1  0  
 536    8   6   0.053000    1.010493548    -7.413915476    -7.648953996   0  1  0  
 497    8   1  -0.376000    2.419868729    -3.808525403    -7.222949829   0  1  0  
 450    7   6   0.053000    2.681358777    -8.737578000    -14.025401242  -1 0  0  
 181    3   5  -0.126000   -0.705944807    -0.471736374    -7.268859555   0  1  -2 
 150    3   1  -0.376000    1.037240350    -0.502812887    -9.465046650   0  1  -2 
 184    3   6   0.053000    0.337357837    -0.653193541    -10.275907680  0  1  -2 
 502    8   1  -0.376000   -1.564467661    -8.922691038    -10.797019935  0  1  0  
 206    3   5  -0.126000    0.131693489    -0.501915134    -12.942899375  0  1  -2 
  58    1   6   0.053000   -1.959297825    -5.904766381    -13.731866751  1  1  2  
 438    7   6   0.126800    7.505077411    -2.188896797    -13.523382495  -1 0  0  
 415    7   3  -0.253600    6.383888734    -2.126738821    -13.526560817  -1 0  0  
 681    10  6   0.053000    9.183757290    -2.481087006    -12.780287651  0  3  3  
 726    11  6   0.053000    6.824501665    -8.354144086    -14.240233978  -1 1  1  
 728    11  5  -0.126000    8.407956552    -5.565537115    -13.764893202  -1 1  1  
 551    8   5  -0.126000    3.495309448    -6.356304071    -7.521965767   0  1  0  
 442    7   6   0.053000    3.839194636    -2.524573195    -13.913072315  -1 0  0  
 441    7   6   0.053000    3.886861240    -1.969752304    -12.326832748  -1 0  0  
 420    7   7   0.522000    4.071262979    -6.762675880    -13.680503952  -1 0  0  
 417    7   1  -0.241000    4.146552858    -2.809871719    -12.932859278  -1 0  0  
 443    7   5  -0.126000    3.804227056    -4.949827106    -11.299810404  -1 0  0  
 422    7   7   0.522000    3.914921326    -8.959830867    -11.836907824  -1 0  0  
 186    3   5  -0.126000    3.837723508    -0.247468438    -10.010236228  0  1  -2 
 452    7   5  -0.126000    4.537518086    -7.916943177    -11.038383231  -1 0  0  