LAMMPS data file via write_data, version 8 Feb 2023, timestep = 1000000

828 atoms
7 atom types
816 bonds
12 bond types
1584 angles
22 angle types
2280 dihedrals
27 dihedral types
1032 impropers
18 improper types

-9.800869334398929 9.800869334398929 xlo xhi
-9.482470369365277 9.482470369365277 ylo yhi
-14.242589877641368 14.242589877641368 zlo zhi

Masses

1 12.01115
2 12.01115
3 12.01115
4 12.01115
5 1.00797
6 1.00797
7 28.086

Pair Coeffs # lj/class2/coul/cut

1 0.054 4.01
2 0.054 3.9
3 0.064 3.9
4 0.064 4.01
5 0.02 2.995
6 0.02 2.3
7 0.19 4.45

Bond Coeffs # class2

1 1.101 345 -691.89 844.6
2 1.8995 189.654 -279.421 307.514
3 1.506 312.352 -582.186 339.897
4 1.53 299.67 -501.77 679.81
5 1.101 345 -691.89 844.6
6 1.8995 189.654 -279.421 307.514
7 1.34 543.99 -1238.2 1644.03
8 1.0883 365.768 -725.54 781.662
9 1.0883 365.768 -725.54 781.662
10 0.7414 414 0 0
11 1.4783 202.78 -305.36 280.269
12 2.3384 114.216 -140.421 80.7084

Angle Coeffs # class2

1 112.67 39.516 -7.443 -9.5583
2 110.77 41.453 -10.604 5.129
3 112.67 39.516 -7.443 0
4 126.26 43.825 -27.7266 1.0056
5 117.27 30.0944 -8.0826 -8.6781
6 113.186 36.2069 -20.3939 20.0172
7 113.186 36.2069 -20.3939 20.0172
8 112.098 36.4832 -12.8094 0
9 113 19.4692 -34.3471 0
10 112.098 36.4832 -12.8094 0
11 124.88 35.2766 -17.774 -1.6215
12 110.06 41.2784 -14.2963 5.2229
13 112.3 34.6 0 0
14 124.88 35.2766 -17.774 -1.6215
15 108.605 32.5415 -8.3164 0
16 112.089 22.5062 -11.5926 0
17 107.66 39.641 -12.921 -2.4318
18 112.035 28.7721 -13.9523 0
19 107.66 39.641 -12.921 -2.4318
20 112.035 28.7721 -13.9523 0
21 115.49 29.6363 -12.4853 -6.2218
22 112.3 34.6 0 0

BondBond Coeffs

1 0 1.53 1.53
2 3.3872 1.53 1.101
3 0 1.53 1.8995
4 17.7913 1.506 1.34
5 3.4394 1.506 1.0883
6 3.7419 1.8995 1.8995
7 3.7419 1.8995 1.8995
8 3.9264 1.8995 1.4783
9 2.303 1.8995 2.3384
10 3.9264 1.8995 1.4783
11 10.1047 1.34 1.0883
12 9.9922 1.506 1.101
13 0 1.506 1.8995
14 10.1047 1.34 1.0883
15 4.6408 1.4783 1.4783
16 3.5172 1.4783 2.3384
17 5.3316 1.101 1.101
18 1.6561 1.101 1.8995
19 5.3316 1.101 1.101
20 1.6561 1.101 1.8995
21 4.8506 1.0883 1.0883
22 0 1.8995 1.8995

BondAngle Coeffs

1 8.016 8.016 1.53 1.53
2 20.754 11.421 1.53 1.101
3 0 0 1.53 1.8995
4 31.5885 24.2252 1.506 1.34
5 17.6452 15.3492 1.506 1.0883
6 18.5805 18.5805 1.8995 1.8995
7 18.5805 18.5805 1.8995 1.8995
8 13.3961 7.4104 1.8995 1.4783
9 16.9455 11.4377 1.8995 2.3384
10 13.3961 7.4104 1.8995 1.4783
11 23.3588 19.0592 1.34 1.0883
12 20.8767 14.2741 1.506 1.101
13 0 0 1.506 1.8995
14 23.3588 19.0592 1.34 1.0883
15 9.3467 9.3467 1.4783 1.4783
16 5.663 2.0706 1.4783 2.3384
17 18.103 18.103 1.101 1.101
18 16.6908 18.2764 1.101 1.8995
19 18.103 18.103 1.101 1.101
20 16.6908 18.2764 1.101 1.8995
21 17.9795 17.9795 1.0883 1.0883
22 0 0 1.8995 1.8995

Dihedral Coeffs # class2

1 0 0 0.0316 0 -0.1681 0
2 0 0 0.0514 0 -0.143 0
3 0 0 0 0 -0.0657 0
4 0 0 0 0 -0.0657 0
5 0 0 0 0 -0.0653 0
6 0 0 0 0 -0.0653 0
7 0 0 0 0 0.211 0
8 0 0 0 0 0.1111 0
9 0 0 0 0 0.1111 0
10 0 0 0 0 -0.0653 0
11 -0.1432 0 0.0617 0 -0.1083 0
12 0 0 0.0514 0 -0.143 0
13 0.1143 0 0 0 0.1854 0
14 -0.1143 0 0 0 -0.1349 0
15 0 0 0 0 -0.0657 0
16 0 0 0 0 -0.0657 0
17 0 0 0 0 -0.0657 0
18 0 0 0 0 -0.0657 0
19 0 0 0 0 -0.0657 0
20 0 0 0 0 -0.0657 0
21 0 0 5.2097 0 0 0
22 0 0 4.8974 0 0 0
23 0 0 0 0 0.211 0
24 0 0 0 0 0.1111 0
25 0 0 0 0 0.1111 0
26 0 0 0 0 0.1111 0
27 0 0 0 0 0.1111 0

AngleAngleTorsion Coeffs

1 -16.164 112.67 110.77
2 0 112.67 112.67
3 0 112.67 113.186
4 0 112.67 112.098
5 0 113 113
6 -16.9141 113 112.089
7 0 126.26 112.3
8 0 112.3 113.186
9 0 112.3 112.098
10 -10.8232 112.089 112.089
11 -12.564 110.77 110.77
12 0 110.77 112.67
13 -13.6826 110.06 126.26
14 -10.9512 110.06 117.27
15 -17.5802 112.035 113.186
16 -17.5802 112.035 113.186
17 -12.9341 112.035 112.098
18 -13.3679 112.035 113
19 -17.5802 112.035 113.186
20 -12.9341 112.035 112.098
21 -7.6912 124.88 126.26
22 -7.0058 124.88 124.88
23 0 117.27 112.3
24 0 112.3 113.186
25 0 112.3 113.186
26 0 112.3 112.098
27 0 112.3 113

EndBondTorsion Coeffs

1 0.2486 0.2422 -0.0925 0.0814 0.0591 0.2219 1.53 1.101
2 0 0 0 0 0 0 1.53 1.8995
3 0 0 0 0 0 0 1.53 1.8995
4 0 0 0 0 0 0 1.53 1.4783
5 0 0 0 0 0 0 1.8995 1.8995
6 0 0 0 0 0 0 1.8995 1.4783
7 0 0 0 0 0 0 1.34 1.8995
8 0 0 0 0 0 0 1.506 1.8995
9 0 0 0 0 0 0 1.506 1.4783
10 0 0 0 0 0 0 1.4783 1.4783
11 0.213 0.312 0.0777 0.213 0.312 0.0777 1.101 1.101
12 0 0 0 0 0 0 1.101 1.8995
13 1.9787 0 -0.1805 0.8566 0 0.0811 1.101 1.34
14 0.2212 0 0.0915 0.5934 0 0.0424 1.101 1.0883
15 0 0 0 0 0 0 1.101 1.8995
16 0 0 0 0 0 0 1.101 1.8995
17 0 0 0 0 0 0 1.101 1.4783
18 0 0 0 0 0 0 1.101 2.3384
19 0 0 0 0 0 0 1.101 1.8995
20 0 0 0 0 0 0 1.101 1.4783
21 0.5406 -0.1611 0 -0.2201 0.677 0 1.0883 1.506
22 0.7129 0.5161 0 0.7129 0.5161 0 1.0883 1.0883
23 0 0 0 0 0 0 1.0883 1.8995
24 0 0 0 0 0 0 1.8995 1.8995
25 0 0 0 0 0 0 1.8995 1.8995
26 0 0 0 0 0 0 1.8995 1.4783
27 0 0 0 0 0 0 1.8995 2.3384

MiddleBondTorsion Coeffs

1 -14.879 -3.6581 -0.3138 1.53
2 0 0 0 1.53
3 0 0 0 1.8995
4 0 0 0 1.8995
5 0 0 0 2.3384
6 0 0 -0.6941 2.3384
7 0 0 0 1.506
8 0 0 0 1.8995
9 0 0 0 1.8995
10 0 0 -0.6302 2.3384
11 -14.261 -0.5322 -0.4864 1.53
12 0 0 0 1.53
13 -1.5727 0 0.6565 1.506
14 1.873 0 -0.3702 1.506
15 0 0 0 1.8995
16 0 0 0 1.8995
17 0 0 -0.5906 1.8995
18 0 0 -0.1909 1.8995
19 0 0 0 1.8995
20 0 0 -0.5906 1.8995
21 1.122 6.0669 0 1.34
22 0.8558 6.3911 0 1.34
23 0 0 0 1.506
24 0 0 0 1.8995
25 0 0 0 1.8995
26 0 0 0 1.8995
27 0 0 0 1.8995

BondBond13 Coeffs

1 0 1.53 1.101
2 0 1.53 1.8995
3 0 1.53 1.8995
4 0 1.53 1.4783
5 0 1.8995 1.8995
6 0 1.8995 1.4783
7 0 1.34 1.8995
8 0 1.506 1.8995
9 0 1.506 1.4783
10 0 1.4783 1.4783
11 0 1.101 1.101
12 0 1.101 1.8995
13 0 1.101 1.34
14 0 1.101 1.0883
15 0 1.101 1.8995
16 0 1.101 1.8995
17 0 1.101 1.4783
18 0 1.101 2.3384
19 0 1.101 1.8995
20 0 1.101 1.4783
21 0 1.0883 1.506
22 0 1.0883 1.0883
23 0 1.0883 1.8995
24 0 1.8995 1.8995
25 0 1.8995 1.8995
26 0 1.8995 1.4783
27 0 1.8995 2.3384

AngleTorsion Coeffs

1 -0.2454 0 -0.1136 0.3113 0.4516 -0.1988 112.67 110.77
2 0 0 0 0 0 0 112.67 112.67
3 0 0 0 0 0 0 112.67 113.186
4 0 0 0 0 0 0 112.67 112.098
5 0 0 0 0 0 0 113 113
6 0 0 0 0 0 0.609 113 112.089
7 0 0 0 0 0 0 126.26 112.3
8 0 0 0 0 0 0 112.3 113.186
9 0 0 0 0 0 0 112.3 112.098
10 0 0 -0.2288 0 0 -0.2288 112.089 112.089
11 -0.8085 0.5569 -0.2466 -0.8085 0.5569 -0.2466 110.77 110.77
12 0 0 0 0 0 0 110.77 112.67
13 1.5982 0 0 -1.8873 0 0 110.06 126.26
14 1.9061 0 0 -0.0677 0 0 110.06 117.27
15 0 0 0.3382 0 0 0.4272 112.035 113.186
16 0 0 0.3382 0 0 0.4272 112.035 113.186
17 0 0 0 0 0 -0.1423 112.035 112.098
18 0 0 0.1637 0 0 0.0462 112.035 113
19 0 0 0.3382 0 0 0.4272 112.035 113.186
20 0 0 0 0 0 -0.1423 112.035 112.098
21 -1.5176 3.7112 0 -5.4082 1.4731 0 124.88 126.26
22 -1.8911 3.254 0 -1.8911 3.254 0 124.88 124.88
23 0 0 0 0 0 0 117.27 112.3
24 0 0 0 0 0 0 112.3 113.186
25 0 0 0 0 0 0 112.3 113.186
26 0 0 0 0 0 0 112.3 112.098
27 0 0 0 0 0 0 112.3 113

Improper Coeffs # class2

1 2.0765 0
2 2.8561 0
3 0 0
4 0 0
5 0 0
6 0 0
7 0 0
8 0 0
9 0 0
10 0 0
11 0 0
12 0 0
13 0 0
14 0 0
15 0 0
16 0 0
17 0 0
18 0 0

AngleAngle Coeffs

1 0 0 0 126.26 124.88 117.27
2 0 0 0 124.88 115.49 124.88
3 -1.3199 -1.3199 0.1184 112.67 110.77 110.77
4 0.2738 -0.4825 0.2738 110.77 110.77 107.66
5 0 0 0 110.77 112.035 112.67
6 0 0 0 113.186 113.186 113.186
7 3.3827 3.3827 2.7963 113.186 112.098 112.098
8 1.3465 1.3465 2.0805 113.186 113 113
9 3.3827 3.3827 2.7963 113.186 112.098 112.098
10 4.4559 4.6809 4.4559 112.098 112.098 108.605
11 3.4758 0 -2.9623 112.098 113 112.089
12 4.4559 4.6809 4.4559 112.098 112.098 108.605
13 -0.1141 -8.2464 -0.1141 110.06 110.06 107.66
14 0 0 0 110.06 112.035 112.3
15 0 0 2.205 107.66 112.035 112.035
16 0 0 0 112.035 112.3 112.035
17 -0.3157 -0.3157 -0.3157 107.66 107.66 107.66
18 0 0 2.205 107.66 112.035 112.035

Atoms # full

644 10 7 0.522 -5.652974120129863 -8.044242673299083 -10.237192814343162 1 3 3
637 10 1 -0.376 -5.136705949303647 -6.221832586930992 -9.770862466715407 1 3 3
676 10 5 -0.126 -7.873836959294702 -5.965847385701556 -9.83675382302727 1 3 3
638 10 7 0.522 -6.658510258677225 -5.114892924400433 -10.081971000159118 1 3 3
677 10 5 -0.126 -6.491631145988475 -4.155582794538718 -9.025303350808688 1 3 3
674 10 6 0.053 -4.809569540218627 -6.201135032508587 -8.667360224840342 1 3 3
639 10 1 -0.376 -7.030102440249554 -4.270595538076019 -11.80363620918306 1 3 3
675 10 6 0.053 -4.281875672177859 -5.943725729910437 -10.34215478477506 1 3 3
41 1 6 0.053 -5.538083160991778 -1.7258177322531925 -8.842540351604377 1 1 2
679 10 6 0.053 -7.485378257202221 -5.042957569184413 -12.490029911889954 1 3 3
678 10 6 0.053 -6.328745511311144 -3.660881055359215 -12.431265115433604 1 3 3
690 10 5 -0.126 -7.108037497822891 -8.269825979086724 -10.57960347698182 1 3 3
643 10 7 0.522 -8.439949902256668 -3.1628676878844892 -11.189071312755347 1 3 3
687 10 5 -0.126 -9.216219651287243 -3.8622873755832545 -10.17144945023573 1 3 3
66 1 5 -0.126 -5.137811712370944 -5.61832940560348 -13.40267014656074 1 1 2
640 10 1 -0.376 -9.421857859602847 -2.8645842456148243 -12.820057127345304 1 3 3
641 10 7 0.522 -8.436884219265384 -1.5016122683700077 -13.69980340745704 1 3 3
688 10 5 -0.126 -7.982493772657746 -1.8741890034052906 -10.584149991129948 1 3 3
21 1 2 -0.294 -6.360595705007936 -8.315504775505122 -13.893540712669903 1 1 2
719 11 5 -0.126 -9.351099158449438 -6.64443875945276 -11.469694195582175 0 1 1
689 10 5 -0.126 -4.9629382259677755 -8.628888240129687 -11.415125711784233 1 3 3
42 1 6 0.053 -7.22933800500576 -1.7277950439866272 -8.418812666544309 1 1 2
685 10 6 0.053 -5.8630405369912175 -2.025041979641647 -13.83459293807014 1 3 3
63 1 6 0.053 -6.784593218822836 -7.550788427789361 -13.217126476801834 1 1 2
723 11 5 -0.126 -9.34212303760724 -7.955148442786838 -13.569742628415817 0 1 1
680 10 6 0.053 -9.50722216602037 -3.7670176564298403 -13.46931199048187 1 3 3
39 1 6 0.053 -4.484735387654404 -3.3827516095410655 -7.292519756679959 1 1 2
10 1 1 -0.376 -6.284533595229768 -1.2614734021911183 -8.119861022825138 1 1 2
14 1 1 -0.376 -4.0341844161418905 -1.0458853847361915 -11.706504727497446 1 1 2
49 1 6 0.053 -4.862290906508803 -1.684334859991088 -11.498644638722801 1 1 2
720 11 5 -0.126 -9.792120540539662 -8.321426018321041 -9.891769603344454 0 1 1
64 1 6 0.053 -7.044029754450294 -9.117220131860494 -13.900841937480836 1 1 2
670 10 6 0.053 -5.28903096693146 -8.892994769699616 -7.8457968656729085 1 3 3
50 1 6 0.053 -3.9524085766645687 -0.9760644145766069 -12.795115437382599 1 1 2
635 10 1 -0.376 -5.110536287280194 -9.294095130275371 -8.795725276369387 1 3 3
65 1 6 0.053 -5.417682627788791 -8.629830549578408 -13.338240873129307 1 1 2
683 10 5 -0.126 -8.307863680075158 -0.2819160051569689 -12.903401125177895 1 3 3
54 1 6 0.053 -3.059487596209869 -4.395569226690019 -11.576891308080135 1 1 2
16 1 1 -0.376 -2.320543196631913 -3.6166859885883333 -11.663135407554135 1 1 2
53 1 6 0.053 -1.5503792653134632 -4.064565551680506 -11.04134007195984 1 1 2
23 1 7 0.522 -2.5867638430199094 -1.9117903480092044 -10.897614637463702 1 1 2
17 1 7 0.522 -2.0769720242732763 -3.4420800840080954 -13.556060056327535 1 1 2
69 1 5 -0.126 -2.7648364117285276 -1.8223637177880079 -9.439835930755223 1 1 2
549 8 5 -0.126 -0.6330351293688405 -6.577302280278437 -11.885567042602311 0 1 0
68 1 5 -0.126 -1.3274936168085247 -1.0660230462274427 -11.096757783342763 1 1 2
505 8 7 0.522 -0.618788440383879 -7.321853053048563 -10.647762053037736 0 1 0
501 8 1 -0.376 -1.4875798329085814 -6.215524467587555 -9.376859227355826 0 1 0
540 8 6 0.053 -2.1468309175725873 -6.790989667711732 -8.699054313567105 0 1 0
56 1 5 -0.126 -0.7590385299630515 -2.8878371363973443 -13.89359130819389 1 1 2
541 8 6 0.053 -2.0799613302110105 -5.482399940350825 -9.990753438233988 0 1 0
444 7 5 -0.126 1.7052053245094427 -3.8292633517302876 -11.890427189442022 -1 0 0
445 7 6 0.053 1.8086201506164912 -5.748743883806417 -14.144128765674699 -1 0 0
550 8 5 -0.126 0.8247121230306362 -7.589314517281108 -10.446118256532781 0 1 0
419 7 1 -0.376 2.8882820790460713 -5.35631090226536 -14.013197011779889 -1 0 0
500 8 7 0.522 -0.14678794539694096 -5.343822662482232 -8.435968629045682 0 1 0
538 8 5 -0.126 -0.7046786074817764 -4.2487507561682545 -7.74673255190483 0 1 0
421 7 1 -0.376 2.9261776263668864 -8.125421513936482 -13.208168620077258 -1 0 0
449 7 6 0.053 1.9902182608808392 -7.593761199667995 -12.786367751112603 -1 0 0
539 8 5 -0.126 0.8803105487845464 -4.836967021609834 -9.42919570380685 0 1 0
183 3 6 0.053 1.2700463119109084 -1.4854734798233418 -9.10293365120372 0 1 -2
418 7 7 0.522 3.03450545580948 -4.276246606800599 -12.426153838603808 -1 0 0
55 1 5 -0.126 -2.8704127738486926 -2.413703245539888 -14.122909574739866 1 1 2
545 8 5 -0.126 0.2766179404796745 -9.236079779097777 -12.911890176978917 0 1 0
543 8 6 0.053 -2.647639251091892 -8.87975615797047 -10.591164165703727 0 1 0
533 8 6 0.053 2.16679541800713 -3.7646789753663423 -8.290760996138982 0 1 0
499 8 1 -0.376 0.7947979718743774 -6.390364582190163 -7.22157169609052 0 1 0
536 8 6 0.053 1.0104935482624562 -7.413915476048535 -7.648953995662437 0 1 0
497 8 1 -0.376 2.4198687288894796 -3.808525403474105 -7.222949828783212 0 1 0
450 7 6 0.053 2.6813587770177065 -8.737578000307614 -14.025401242254745 -1 0 0
181 3 5 -0.126 -0.70594480749096 -0.4717363736527762 -7.268859555329496 0 1 -2
150 3 1 -0.376 1.0372403498128229 -0.5028128874657245 -9.465046649717422 0 1 -2
184 3 6 0.053 0.33735783695300725 -0.6531935406467468 -10.275907679920238 0 1 -2
502 8 1 -0.376 -1.5644676605209398 -8.92269103831682 -10.797019935130749 0 1 0
206 3 5 -0.126 0.13169348885632104 -0.5019151337782866 -12.942899374718156 0 1 -2
58 1 6 0.053 -1.9592978247382984 -5.904766381167712 -13.731866750735986 1 1 2
438 7 6 0.1268 7.505077410653914 -2.1888967974969438 -13.523382495091976 -1 0 0
415 7 3 -0.2536 6.383888734225291 -2.1267388212034195 -13.526560817239924 -1 0 0
681 10 6 0.053 9.183757289825738 -2.4810870058414745 -12.78028765050991 0 3 3
726 11 6 0.053 6.824501665073509 -8.354144085612065 -14.240233978219521 -1 1 1
728 11 5 -0.126 8.407956552365942 -5.565537114898008 -13.764893202143453 -1 1 1
551 8 5 -0.126 3.4953094484227076 -6.3563040712973145 -7.521965767436081 0 1 0
442 7 6 0.053 3.8391946360848195 -2.5245731951335975 -13.913072314641875 -1 0 0
441 7 6 0.053 3.8868612398589892 -1.9697523036689093 -12.326832747548416 -1 0 0
420 7 7 0.522 4.071262979010452 -6.762675879911412 -13.680503951931275 -1 0 0
417 7 1 -0.241 4.146552858349381 -2.809871718867698 -12.932859278138121 -1 0 0
443 7 5 -0.126 3.8042270561102143 -4.94982710552933 -11.299810404220104 -1 0 0
422 7 7 0.522 3.9149213256666204 -8.959830867010709 -11.836907823917034 -1 0 0
186 3 5 -0.126 3.8377235075446645 -0.24746843837477783 -10.010236227633037 0 1 -2
452 7 5 -0.126 4.537518086486864 -7.916943177377199 -11.038383230924945 -1 0 0
718 11 6 0.053 8.966782939610574 -5.587412535497069 -9.034580722909455 -1 1 1
717 11 6 0.053 7.70145392934592 -5.306508944107189 -10.260419233124434 -1 1 1
715 11 6 0.1268 5.693457852282593 -5.5641826806107995 -9.410169019206137 -1 1 1
525 8 6 0.053 8.119840926664263 -2.6770791064936352 -8.464251590735433 0 1 0
440 7 6 0.1268 6.045278437384095 -3.689623578602328 -12.258721000427418 -1 0 0
692 11 4 -0.1268 7.260567271350805 -6.756708578511547 -8.748372271450918 -1 1 1
416 7 4 -0.1268 5.625557285288432 -2.9390070194963442 -12.87423105830235 -1 0 0
448 7 5 -0.126 4.9749906349528565 -6.445845766519835 -12.558061961152534 -1 0 0
696 11 7 0.522 8.995101683855495 -8.679385309747262 -13.460562512398027 -1 1 1
691 11 3 -0.2536 5.973563268038566 -6.387953416835972 -8.749110646379306 -1 1 1
714 11 6 0.1268 5.302383953066702 -6.783477195295631 -7.982004117210527 -1 1 1
527 8 5 -0.126 6.182133964372156 -0.7524286507274951 -9.758552080080484 0 1 0
439 7 6 0.1268 5.972096056257332 -1.325547177920928 -14.154027413309834 -1 0 0
528 8 6 0.053 4.278891985672301 -2.5026745059995834 -9.307342023565688 0 1 0
716 11 6 0.1268 7.629362827281636 -7.582768765206303 -8.059910486233928 -1 1 1
493 8 1 -0.376 7.981040141641525 -1.711489096705181 -8.033583084357257 0 1 0
529 8 6 0.053 5.6247780080403 -3.5701416021336367 -8.910131816989981 0 1 0
495 8 1 -0.376 4.992660955846452 -2.7296245924878457 -8.509408183676504 0 1 0
494 8 7 0.522 6.122301200385234 -1.2118477190742034 -8.379594542732843 0 1 0
524 8 6 0.053 8.777334004314472 -0.9222908120702407 -8.44192029019371 0 1 0
693 11 1 -0.241 8.227879318107785 -6.1157345057742205 -9.631801791781514 -1 1 1
694 11 7 0.522 9.119449052642125 -7.356163051579305 -10.705020190266527 -1 1 1
526 8 5 -0.126 5.611901940412645 -0.17256129692193944 -7.311155768947235 0 1 0
722 11 6 0.053 7.045121056292004 -8.465145128868533 -11.861602649964627 -1 1 1
695 11 1 -0.376 8.131467844766636 -8.618135556428111 -11.778346590862256 -1 1 1
479 7 6 0.053 3.726326854090262 -9.46218972468353 -7.864348317726391 -1 0 0
403 6 6 0.053 -6.07464454431454 -9.15775754448981 -2.349629985030367 2 -1 -1
398 6 6 0.053 -7.427809649544521 -8.381805928432573 -5.054884430916745 2 -1 -1
363 6 1 -0.376 -7.109450477056585 -9.309207745596943 -2.5912939179399164 2 -1 -1
412 6 5 -0.126 -8.266498744114552 -9.319401656885598 -0.22259050265352442 2 -1 -1
487 8 7 0.522 -6.644844684637009 -0.08103909496191264 -0.1423458664870303 1 1 0
510 8 6 0.053 -4.58295852189243 -1.1717016068977806 -1.0210881812055064 1 1 0
511 8 6 0.053 -5.653658210289359 -0.8700144700376349 -2.3593611951772555 1 1 0
509 8 6 0.1268 -6.865584674638889 -2.8064526341079032 -2.119722178777012 1 1 0
485 8 4 -0.1268 -6.06698444874121 -2.618353928380479 -1.327021493970511 1 1 0
507 8 6 0.1268 -6.102125031326226 -4.575665457292039 -0.6632343632306021 1 1 0
484 8 3 -0.2536 -5.703750249546718 -3.6060668049327944 -0.5540342997677428 1 1 0
399 6 6 0.053 -7.494821051155948 -6.6297754132218 -5.111410917813513 2 -1 -1
400 6 5 -0.126 -7.726276574023772 -6.572211256811326 -2.137989023339678 2 -1 -1
361 6 1 -0.376 -7.999957242120697 -7.486348470518961 -4.814469114592331 2 -1 -1
52 1 5 -0.126 -5.4152151164030204 -0.20352468642702704 -5.821480965587751 1 1 2
15 1 7 0.522 -5.812027939717527 -1.4886702307844049 -6.330003896035747 1 1 2
51 1 5 -0.126 -6.943260710456123 -1.8226438469543123 -5.570233076673631 1 1 2
9 1 1 -0.376 -4.565557253773858 -2.903292466219991 -6.36008096073306 1 1 2
40 1 6 0.053 -4.996255260986326 -3.601241282376975 -5.650686616604615 1 1 2
362 6 7 0.522 -8.183632115479035 -7.677209345037239 -2.9539307090465474 2 -1 -1
401 6 5 -0.126 -9.642171365362245 -8.009205567636798 -2.610463657819789 2 -1 -1
341 5 6 0.053 -3.8364422253073673 -6.755908177484347 -2.91900045527089 -1 0 -1
340 5 6 0.053 -4.1510290712929185 -8.501365287853929 -2.617848561068037 -1 0 -1
368 6 7 0.522 -9.729247482739648 -7.7446183836975795 -5.537942435648054 2 -1 -1
339 5 6 0.053 -3.7018746678957637 -7.960824298454218 -4.2537974172175215 -1 0 -1
297 5 2 -0.294 -3.55099491212707 -7.816283918701426 -3.1798671505039167 -1 0 -1
491 8 7 0.522 -9.626982834294953 -0.6619456159579045 -3.8998210775369575 1 1 0
520 8 5 -0.126 -8.943444520836923 -1.9822540326151383 -4.118816399841352 1 1 0
486 8 1 -0.241 -5.601225139015906 -1.1800718480621217 -1.3383534852583612 1 1 0
35 1 6 0.053 -4.227564178028272 -2.5166633382194954 -3.502042692670585 1 1 2
414 6 5 -0.126 -9.6002537220517 -8.123235483123803 -6.984734519789663 2 -1 -1
523 8 6 0.053 -9.602474411069078 -0.1105363305450009 -6.227734712673479 1 1 0
579 9 6 0.053 2.9228323608516256 -3.4827908880067087 -1.936520714113687 -1 -2 -1
180 3 6 0.053 2.0955145034902785 -0.1469052003705773 -6.513867492750556 0 1 -2
645 10 6 0.1268 -2.1542190026421455 -8.421622513303689 -6.8699753598620905 1 3 3
294 5 1 -0.376 1.1562944534863995 -9.435589768257312 -1.6246549109138186 -1 0 -1
537 8 6 0.053 0.11496031456584 -6.460835654700809 -6.328298878797425 0 1 0
37 1 5 -0.126 -2.7330925719616914 -0.6889896296971241 -5.901177729551096 1 1 2
506 8 7 0.522 2.4753717192573266 -5.6793204983562635 -6.699196988609701 0 1 0
33 1 5 -0.126 -1.1712866600236609 -4.1237770194140575 -4.540253453797938 1 1 2
36 1 6 0.053 -2.94053360638394 -1.2540447577334923 -3.3049348381854724 1 1 2
38 1 5 -0.126 -1.8475702137234968 -2.6599947963468535 -6.235875436145399 1 1 2
342 5 5 -0.126 1.2542835751869923 -6.7552645944378344 -1.709849222258038 -1 0 -1
343 5 5 -0.126 2.329503864824659 -7.880324544731116 -3.4490190315267313 -1 0 -1
8 1 7 0.522 -3.088849892945408 -2.113378646849629 -5.660540271405241 1 1 2
34 1 5 -0.126 -2.6921277073517427 -4.541987311637862 -2.6891420372012096 1 1 2
532 8 6 0.053 1.7340003825728534 -3.224892188634227 -6.605087081784762 0 1 0
295 5 1 -0.376 -0.4280230752934582 -7.854251054711962 -3.6500871631841587 -1 0 -1
298 5 7 0.522 1.1205252554209775 -7.900451498072753 -2.604709197723947 -1 0 -1
338 5 5 -0.126 -1.656450685364021 -8.445493243872646 -1.1348066452371608 -1 0 -1
4 1 7 0.522 -0.9867897050095529 -3.657713708938977 -0.44798290471121227 1 1 2
5 1 1 -0.376 -0.8196471779719872 -2.634111318644308 -2.1282248943392386 1 1 2
32 1 6 0.053 0.16839838179326172 -2.274018989517092 -2.3789169119576066 1 1 2
6 1 7 0.522 -1.9174365505886293 -3.526284100336694 -3.3546538540628177 1 1 2
7 1 1 -0.376 -3.1579720861090443 -2.2235854353329643 -3.8114316874300087 1 1 2
296 5 7 0.522 -1.843237794127548 -8.442740485024125 -2.598157397874907 -1 0 -1
31 1 6 0.053 -1.4356979840757038 -1.7331750322805588 -1.9900160242757998 1 1 2
335 5 6 0.053 -0.5679960100414636 -6.8377544444154275 -3.927157349255344 -1 0 -1
336 5 6 0.053 -0.3809849624303414 -8.485560770233041 -4.571400367064797 -1 0 -1
552 8 5 -0.126 2.7852049053600574 -5.720011640442627 -5.324270125190532 0 1 0
30 1 5 -0.126 -1.5946385542127395 -4.9219587417719755 -0.6105252447550171 1 1 2
647 10 6 0.1268 -0.10016467380987493 -9.353371342154466 -7.118148323569681 1 3 3
622 10 3 -0.2536 -2.0627778116700632 -9.438346905661763 -6.481449104779534 1 3 3
25 1 6 0.1268 -1.8575798407425363 -0.12724855979453942 -0.6109851906289734 1 1 2
521 8 5 -0.126 8.986915473537135 -1.0313696619694177 -2.7689224552632705 0 1 0
329 5 6 0.053 3.564267096670651 -8.662411902899136 -0.17272997102931953 -1 0 -1
534 8 5 -0.126 9.117411528069983 -3.1461966534296995 -5.882257962272815 0 1 0
555 9 1 -0.241 3.698227840712372 -2.8386972256021386 -1.4353686295300143 -1 -2 -1
395 6 6 0.053 9.751311412646004 -5.532638097433296 -4.746764281086719 1 -1 -1
535 8 5 -0.126 7.018989744869007 -2.0805613504395524 -5.511115443899808 0 1 0
531 8 5 -0.126 3.7694489022095166 -1.722236897363537 -6.33837954313405 0 1 0
578 9 6 0.1268 3.6085363854206687 -0.7816588752600069 -2.3228842774892353 -1 -2 -1
576 9 6 0.1268 5.89814805418559 -0.9331027950222861 -3.2790508696646015 -1 -2 -1
554 9 4 -0.1268 4.258680867060811 -1.6411385427966287 -2.3190833791927083 -1 -2 -1
356 6 7 0.522 8.349830033894257 -5.048895249564325 -1.3290360123677303 1 -1 -1
162 3 6 0.1268 6.5528818598143985 -7.8070356073389515 -0.9506244762499279 0 2 -2
553 9 3 -0.2536 5.470170460022432 -1.7471141456679975 -2.7340667877820657 -1 -2 -1
357 6 1 -0.376 7.353197995397771 -4.843245292275403 -2.8860678002671882 1 -1 -1
392 6 5 -0.126 7.869182582623271 -7.480458791917213 -2.9143887386086007 1 -1 -1
530 8 5 -0.126 5.013965050197381 -3.8879993788169713 -6.182306855057231 0 1 0
388 6 5 -0.126 9.76781855948298 -5.080389985460738 -1.6469212065334542 1 -1 -1
391 6 6 0.053 7.747618815521161 -4.011119628358063 -3.5578551363533926 1 -1 -1
358 6 7 0.522 7.556643420849976 -6.396772423269709 -3.955639670248715 1 -1 -1
413 6 5 -0.126 9.15141772453594 -8.989826316045304 -4.930527240933257 1 -1 -1
139 3 3 -0.2536 6.504051181256077 -8.819873687855768 -0.6447414985144331 0 2 -2
498 8 7 0.522 8.339288799350715 -1.932535922093649 -6.1058566188788035 0 1 0
492 8 1 -0.376 9.198784408305993 -0.37102672226869693 -5.535612315030294 0 1 0
475 7 5 -0.126 6.058770957944381 -8.629316061395777 -5.993565390770369 -1 0 0
164 3 6 0.1268 5.731154728549587 -9.327082031734983 -2.506060500232852 0 2 -2
389 6 5 -0.126 8.053056553186355 -6.316999949735674 -0.5744466738779739 1 -1 -1
359 6 1 -0.376 8.901438478886927 -6.09995459515549 -5.189927467409369 1 -1 -1
393 6 5 -0.126 6.333895231050363 -6.752988267999777 -4.651286577389559 1 -1 -1
390 6 6 0.053 6.340968571349038 -4.531420277489069 -2.6474300233754313 1 -1 -1
387 6 6 0.053 7.376730668010364 -2.8537213322235466 -0.7770141440409954 1 -1 -1
577 9 6 0.1268 6.086223402184608 -2.5966689088775814 -2.4415677545915084 -1 -2 -1
394 6 6 0.053 8.515010616974418 -5.466602611568436 -6.040666711131088 1 -1 -1
496 8 7 0.522 4.104005619424203 -3.055137071304272 -6.932429642960293 0 1 0
355 6 1 -0.376 7.843512945591286 -3.6503705757494362 -0.16960324668901094 1 -1 -1
580 9 6 0.053 4.545394109031916 -3.482171917384699 -1.2173475121164845 -1 -2 -1
230 4 7 0.522 -5.623551952615209 -8.383775625234367 1.7998445625282784 0 -1 1
351 6 7 0.522 -8.023390006708288 -4.347609857305147 6.04376601084838 2 -1 -1
383 6 5 -0.126 -8.121056125055615 -2.458724236778349 2.847803495194743 2 -1 -1
352 6 1 -0.376 -8.443506173487968 -4.722121369644545 4.297193747476744 2 -1 -1
221 4 1 -0.376 -4.553576052074346 -7.056604744737406 0.8081072467782349 0 -1 1
223 4 1 -0.376 -7.054764568673873 -7.485018188862252 2.5887920163727216 0 -1 1
260 4 6 0.053 -6.62437775920365 -6.4436507846938085 2.679210695601796 0 -1 1
380 6 6 0.053 -7.570279985698862 -4.974065042226446 3.604802816423007 2 -1 -1
562 9 1 -0.376 -3.395370740106582 -2.7858087173126345 5.994208415868702 -1 -2 -1
263 4 5 -0.126 -7.225047655340885 -7.915939404292592 5.543109870306239 0 -1 1
224 4 7 0.522 -7.57010315803681 -8.42403208312832 4.1859514133690965 0 -1 1
376 6 6 0.053 -5.574957615027502 -4.930199218757777 6.19040928395269 2 -1 -1
254 4 5 -0.126 -4.352816875807506 -6.087410262355761 3.4218783811292006 0 -1 1
379 6 5 -0.126 -8.04086320327266 -2.9315769362605053 6.290202774138002 2 -1 -1
261 4 6 0.053 -7.909398423551505 -7.367414975005242 1.978345429714743 0 -1 1
594 9 6 0.053 -4.187964657964299 -2.2277567540819403 6.564997719223356 -1 -2 -1
220 4 7 0.522 -3.6646982269241635 -6.1391116406688155 2.1760506431532214 0 -1 1
596 9 5 -0.126 -4.149023157986995 -3.3184377234517433 3.4375312249422088 -1 -2 -1
563 9 7 0.522 -3.508154821300838 -2.185600690839083 4.142810314720027 -1 -2 -1
257 4 6 0.053 -3.9337760811948055 -7.5544584582500205 0.06460006631285964 0 -1 1
593 9 6 0.053 -3.536470447438239 -3.851414244909469 6.136946675301367 -1 -2 -1
255 4 5 -0.126 -3.4617975690818934 -4.747669928885925 1.88877355550715 0 -1 1
276 4 5 -0.126 -4.774974187304441 -8.834319084334604 2.9044314074420754 0 -1 1
377 6 6 0.053 -6.626101792388855 -6.305575736789336 6.489278329046488 2 -1 -1
350 6 1 -0.376 -6.496731648618173 -5.208522845048527 6.706019175028434 2 -1 -1
378 6 5 -0.126 -9.129909694309848 -5.043522035036828 6.7219853108244365 2 -1 -1
256 4 6 0.053 -5.181379410170765 -6.398055496875958 0.14763522567657006 0 -1 1
564 9 1 -0.376 -4.743688966353984 -0.7261475429167774 4.236707333291136 -1 -2 -1
397 6 5 -0.126 -9.062048547919856 -3.6562933158667414 0.09596097574931939 2 -1 -1
353 6 7 0.522 -9.094477038117276 -3.1522202591735278 3.6129053950136516 2 -1 -1
225 4 1 -0.376 -9.526137718123781 -8.385363597364025 4.150730664077166 0 -1 1
382 6 5 -0.126 -9.65111268985599 -2.2058631224880108 4.522768055849852 2 -1 -1
597 9 6 0.053 -5.555092397523154 -0.8827801388833407 3.4610863494586397 -1 -2 -1
265 4 6 0.053 -9.73859069703014 -7.330233498504704 3.799537639207813 0 -1 1
381 6 6 0.053 -9.156670378181786 -5.469047938824674 4.232858361412735 2 -1 -1
512 8 5 -0.126 -7.748106296486127 -0.7790174146570603 0.508343762493471 1 1 0
598 9 6 0.053 -5.313274868529731 -0.793586542532891 5.160061671885526 -1 -2 -1
508 8 6 0.1268 -4.989326160674679 -3.55869458685666 0.21639124459128745 1 1 0
2 1 4 -0.1268 -0.9156432008024158 -1.1730346747878784 0.936515940501879 1 1 2
595 9 5 -0.126 -2.1643153637723858 -1.8213837607203462 3.7058081204291966 -1 -2 -1
567 9 7 0.522 -1.7334215161144257 -2.34542790331444 6.7809632068630705 -1 -2 -1
332 5 5 -0.126 0.484146433329979 -7.670441375534548 0.5094018691324749 -1 0 -1
250 4 5 -0.126 -2.3101384047237117 -6.6512632692692915 5.034269955622701 0 -1 1
253 4 6 0.053 -2.2602230665041407 -8.173230178558951 2.6137715277712736 0 -1 1
248 4 6 0.053 0.8306003229824626 -8.098226122331004 3.6056210500555075 0 -1 1
592 9 6 0.053 0.38515518252445347 -3.526862974837913 7.0886153676344925 -1 -2 -1
561 9 1 -0.376 -0.19572738903324272 -3.312492676369131 6.1345375016949255 -1 -2 -1
217 4 1 -0.376 0.15570659593459446 -7.855072290536315 4.491130713596075 0 -1 1
560 9 7 0.522 1.1322930057702365 -2.2018884518031268 5.300490811098669 -1 -2 -1
259 4 5 -0.126 2.526757628037805 -7.628347223303249 5.484422090578228 0 -1 1
558 9 7 0.522 3.195302024205475 -3.149842404218065 3.201026689498679 -1 -2 -1
559 9 1 -0.376 1.5072014742198565 -2.453723790124096 3.4695426686487316 -1 -2 -1
222 4 7 0.522 1.2336528470391048 -6.934070139638845 5.67360583450386 0 -1 1
591 9 6 0.053 -0.20683420403408448 -4.210407183398438 5.494985818368207 -1 -2 -1
219 4 1 -0.376 -2.0337392505989014 -7.126911540876594 2.4807052834494527 0 -1 1
252 4 6 0.053 -1.302355799026131 -6.957773751988929 1.6996701846525344 0 -1 1
218 4 7 0.522 -1.160423501427875 -6.624137164945203 4.045215575368562 0 -1 1
587 9 6 0.053 1.3736357032918445 -1.4528660365029467 3.010421606726176 -1 -2 -1
28 1 6 0.053 -2.7308834118779846 -2.2496205116783763 0.5063261121644445 1 1 2
249 4 6 0.053 -0.1930851174113588 -8.87766327001118 4.859351700644691 0 -1 1
251 4 5 -0.126 -0.5634631648812629 -5.286593235424012 3.9174991531556635 0 -1 1
258 4 5 -0.126 1.661649841665012 -5.670094389917534 5.179478075912474 0 -1 1
585 9 5 -0.126 3.1527078685041268 -4.549882478924376 3.0922761162599066 -1 -2 -1
345 5 5 -0.126 2.1210715911223126 -6.010321373131413 1.0455313506242252 -1 0 -1
588 9 6 0.053 0.6648008035858961 -2.9649771092618815 2.9428703304004884 -1 -2 -1
590 9 5 -0.126 0.8739249372619149 -0.7109266887050136 5.50462194259249 -1 -2 -1