HEADER,  water.mol2  read w/ mol2SYBYL2lmp > atom_typing v1.9 / 5 January 2024 w/CVFF atom-types > all2lmp: v1.16 / 2 April 2024  Class: 1

3 atoms
2 bonds
1 angles

2 atom types
1 bond types
1 angle types

-1.259766667 1.209133333 xlo xhi
-0.789000000 0.884600000 ylo yhi
-0.500000000 0.500000000 zlo zhi

Masses

1    1.00797000  #  hw   
2   15.99940000  #  o*   

Pair Coeffs  # lj/cut/coul/long

1         0.00000000      0.00000000 #  hw   
2         0.15541641      3.16552009 #  o*   

Bond Coeffs  # harmonic

1       540.63360000      0.96000000 #  o*          hw   

Angle Coeffs  # harmonic

1        50.00000000    104.50000000 #  hw         o*         hw   

Atoms # full

  1     1   2   -0.820000    0.050633333     0.384600000     0.000000000      0    0    0 #  o*/O
  2     1   1    0.410000   -0.759766667    -0.095600000     0.000000000      0    0    0 #  hw/H
  3     1   1    0.410000    0.709133333    -0.289000000     0.000000000      0    0    0 #  hw/H

Bonds

  1   1     1     2  
  2   1     1     3  

Angles

  1   1     2     1     3  
