HEADER,  water.mol2  read w/ mol2SYBYL2lmp > atom_typing v1.9 / 5 January 2024 w/PCFF-IFF atom-types > all2lmp: v1.14 / 18 December 2023  Class: 2

3 atoms
2 bonds
1 angles

2 atom types
1 bond types
1 angle types

-1.240800000 1.240800000 xlo xhi
-0.693966667 0.887933333 ylo yhi
-0.500000000 0.500000000 zlo zhi

Masses

1    1.00797000  #  hw   
2   15.99940000  #  o*   

Pair Coeffs  # lj/class2/coul/long

1         0.01300000      1.09800000 #  hw   
2         0.26000000      3.61000000 #  o*   

Bond Coeffs  # class2

1         0.97000000    563.28000000  -1428.22000000   1902.12000000 #  hw          o*   

Angle Coeffs  # class2

1       103.70000000     49.84000000    -11.60000000     -8.00000000 #  hw         o*         hw   

BondBond Coeffs  # class2

1        -9.50000000      0.97000000      0.97000000 #  hw         o*         hw   

BondAngle Coeffs  # class2

1        22.35000000     22.35000000      0.97000000      0.97000000 #  hw         o*         hw   

Atoms # full

  1     1   2   -0.820000    0.000000000     0.387933333     0.000000000      0    0    0 #  o*/O
  2     1   1    0.410000   -0.740800000    -0.193966667     0.000000000      0    0    0 #  hw/H
  3     1   1    0.410000    0.740800000    -0.193966667     0.000000000      0    0    0 #  hw/H

Bonds

  1   1     2     1  
  2   1     3     1  

Angles

  1   1     2     1     3  
