HEADER,  water.mol2  read w/ mol2SYBYL2lmp > atom_typing v1.9 / 5 January 2024 w/PCFF-IFF atom-types > all2lmp: v1.14 / 18 December 2023  Class: 2 > bond_react_merge: v1.12 / 1 February 2024 datafile (filetag: data2)

3 atoms
2 bonds
1 angles

5 atom types
3 bond types
4 angle types
1 dihedral types
1 improper types

-1.240800000 1.240800000 xlo xhi
-0.693966667 0.887933333 ylo yhi
-0.500000000 0.500000000 zlo zhi

Masses

 1   10.01115  #  cg1  
 2   1.00000   #  cge  
 3   12.01115  #  cp->cg1
 4   1.00797   #  hw   
 5   15.99940  #  o*   

Pair Coeffs  # lj/class2/coul/long

 1        0.06200000      3.93200000 #  cg1  
 2        0.00001000      0.00001000 #  cge  
 3        0.06200000      3.93200000 #  cp->cg1
 4        0.01300000      1.09800000 #  hw   
 5        0.26000000      3.61000000 #  o*   

Bond Coeffs  # class2

 1        0.65000000    250.00000000      0.00000000      0.00000000 #  cg1        cge   
 2        1.42000000    480.00000000      0.00000000      0.00000000 #  cg1        cg1   
 3        0.97000000    563.28000000  -1428.22000000   1902.12000000 #  hw          o*   

Angle Coeffs  # class2

 1      120.00000000     90.00000000      0.00000000      0.00000000 #  cg1       cg1        cg1   
 2       90.00000000     50.00000000      0.00000000      0.00000000 #  cge       cg1        cg1   
 3      180.00000000     50.00000000      0.00000000      0.00000000 #  cge       cg1        cge   
 4      103.70000000     49.84000000    -11.60000000     -8.00000000 #  hw         o*         hw   

Dihedral Coeffs

 1        0.00000000      0.00000000      0.00000000      0.00000000      0.00000000      0.00000000 #  cg1       cg1       cg1        cg1   

Improper Coeffs

 1        0.00000000      0.00000000 #  cg1       cg1       cg1       cg1      nb==3   

BondBond Coeffs  # class2

 1        0.00000000      0.00000000      0.00000000 #  cg1       cg1        cg1   
 2        0.00000000      0.00000000      0.00000000 #  cge       cg1        cg1   
 3        0.00000000      0.00000000      0.00000000 #  cge       cg1        cge   
 4       -9.50000000      0.97000000      0.97000000 #  hw         o*         hw   

BondAngle Coeffs  # class2

 1        0.00000000      0.00000000      0.00000000      0.00000000 #  cg1       cg1        cg1   
 2        0.00000000      0.00000000      0.00000000      0.00000000 #  cge       cg1        cg1   
 3        0.00000000      0.00000000      0.00000000      0.00000000 #  cge       cg1        cge   
 4       22.35000000     22.35000000      0.97000000      0.97000000 #  hw         o*         hw   

AngleAngleTorsion Coeffs

 1        0.00000000      0.00000000      0.00000000 #  cg1       cg1       cg1        cg1   

EndBondTorsion Coeffs

 1        0.00000000      0.00000000      0.00000000      0.00000000      0.00000000      0.00000000      0.00000000      0.00000000 #  cg1       cg1       cg1        cg1   

MiddleBondTorsion Coeffs

 1        0.00000000      0.00000000      0.00000000      0.00000000 #  cg1       cg1       cg1        cg1   

BondBond13 Coeffs

 1        0.00000000      0.00000000      0.00000000 #  cg1       cg1       cg1        cg1   

AngleTorsion Coeffs

 1        0.00000000      0.00000000      0.00000000      0.00000000      0.00000000      0.00000000      0.00000000      0.00000000 #  cg1       cg1       cg1        cg1   

AngleAngle Coeffs

 1        0.00000000      0.00000000      0.00000000      0.00000000      0.00000000      0.00000000 #  cg1       cg1       cg1       cg1      nb==3   

Atoms # full

  1     1   5  -0.820000    0.000000000     0.387933333     0.000000000   0  0  0  #  o*/O 
  2     1   4   0.410000   -0.740800000    -0.193966667     0.000000000   0  0  0  #  hw/H 
  3     1   4   0.410000    0.740800000    -0.193966667     0.000000000   0  0  0  #  hw/H 

Bonds

1  3  2  1  #  hw          o*
2  3  3  1  #  hw          o*

Angles

1  4  2  1  3  #  hw         o*         hw
