HEADER,  post_rxn2.mol2  read w/ mol2SYBYL2lmp > atom_typing v1.5 / 4 July 2023 w/PCFF-IFF atom-types > all2lmp: v1.9 / 31 July 2023  Class: 2

117 atoms
123 bonds
218 angles
304 dihedrals
108 impropers

12 atom types
20 bond types
39 angle types
50 dihedral types
30 improper types

-8.750201709 8.616398291 xlo xhi
-10.104995727 8.557804274 ylo yhi
-10.722695726 12.637704274 zlo zhi

Masses

1   12.01115000  #  c1   
2   12.01115000  #  c2   
3   12.01115000  #  c3   
4   12.01115000  #  c3h  
5   12.01115000  #  cp   
6    1.00797000  #  hn   
7    1.00797000  #  ho   
8    1.00797000  #  hpan 
9   14.00670000  #  nn   
10  15.99940000  #  o3e  
11  15.99940000  #  oc   
12  15.99940000  #  oh   

Pair Coeffs  # lj/class2/coul/long

1         0.05400000      4.01000000 #  c1   
2         0.05400000      4.01000000 #  c2   
3         0.05400000      3.90000000 #  c3   
4         0.05400000      4.01000000 #  c3h  
5         0.06400000      4.01000000 #  cp   
6         0.01300000      1.09800000 #  hn   
7         0.01300000      1.09800000 #  ho   
8         0.02000000      2.30000000 #  hpan 
9         0.06500000      4.07000000 #  nn   
10        0.24000000      3.53500000 #  o3e  
11        0.24000000      3.53500000 #  oc   
12        0.24000000      3.53500000 #  oh   

Bond Coeffs  # class2

1         1.53000000    299.67000000   -501.77000000    679.81000000 #  c1          c2   
2         1.10100000    345.00000000   -691.89000000    844.60000000 #  c1        hpan   
3         1.42000000    400.39540000   -835.19510000   1313.01420000 #  c1          oh   
4         1.53000000    299.67000000   -501.77000000    679.81000000 #  c2          c3   
5         1.53000000    299.67000000   -501.77000000    679.81000000 #  c2         c3h   
6         1.50100000    321.90210000   -521.82080000    572.16280000 #  c2          cp   
7         1.10100000    345.00000000   -691.89000000    844.60000000 #  c2        hpan   
8         1.47000000    356.59880000      0.00000000      0.00000000 #  c2          nn   
9         1.42000000    400.39540000   -835.19510000   1313.01420000 #  c2          oc   
10        1.50100000    321.90210000   -521.82080000    572.16280000 #  c3          cp   
11        1.10100000    345.00000000   -691.89000000    844.60000000 #  c3        hpan   
12        1.53000000    299.67000000   -501.77000000    679.81000000 #  c3h        c3h   
13        1.10100000    345.00000000   -691.89000000    844.60000000 #  c3h       hpan   
14        1.42000000    400.39540000   -835.19510000   1313.01420000 #  c3h        o3e   
15        1.41700000    470.83610000   -627.61790000   1327.63450000 #  cp          cp   
16        1.09820000    372.82510000   -803.45260000    894.31730000 #  cp        hpan   
17        1.39120000    447.04380000   -784.53460000    886.16710000 #  cp          nn   
18        1.37680000    428.87980000   -738.23510000   1114.96550000 #  cp          oc   
19        1.00120000    465.86080000  -1066.23600000   1496.56470000 #  hn          nn   
20        0.96500000    532.50620000  -1282.90500000   2004.76580000 #  ho          oh   

Angle Coeffs  # class2

1       110.77000000     41.45300000    -10.60400000      5.12900000 #  c1         c2       hpan   
2       114.00000000     50.00000000      0.00000000      0.00000000 #  c1         c2         nn   
3       111.27000000     54.53810000     -8.36420000    -13.08380000 #  c1         c2         oc   
4       105.80000000     52.70610000    -12.10900000     -9.86810000 #  c1         oh         ho   
5       112.67000000     39.51600000     -7.44300000     -9.55830000 #  c2         c1         c2   
6       110.77000000     41.45300000    -10.60400000      5.12900000 #  c2         c1       hpan   
7       111.27000000     54.53810000     -8.36420000    -13.08380000 #  c2         c1         oh   
8       110.77000000     41.45300000    -10.60400000      5.12900000 #  c2         c3       hpan   
9       112.67000000     39.51600000     -7.44300000     -9.55830000 #  c2        c3h        c3h   
10      110.77000000     41.45300000    -10.60400000      5.12900000 #  c2        c3h       hpan   
11      111.27000000     54.53810000     -8.36420000    -13.08380000 #  c2        c3h        o3e   
12      120.05000000     44.71480000    -22.73520000      0.00000000 #  c2         cp         cp   
13      120.00000000     50.00000000      0.00000000      0.00000000 #  c2         nn         c2   
14      120.00000000     50.00000000      0.00000000      0.00000000 #  c2         nn         cp   
15      102.96950000     38.97390000     -6.25950000     -8.17100000 #  c2         oc         cp   
16      108.40000000     43.95940000     -8.39240000     -9.33790000 #  c3         c2         cp   
17      110.77000000     41.45300000    -10.60400000      5.12900000 #  c3         c2       hpan   
18      120.05000000     44.71480000    -22.73520000      0.00000000 #  c3         cp         cp   
19      110.77000000     41.45300000    -10.60400000      5.12900000 #  c3h        c2       hpan   
20      111.27000000     54.53810000     -8.36420000    -13.08380000 #  c3h        c2         oc   
21      110.77000000     41.45300000    -10.60400000      5.12900000 #  c3h       c3h       hpan   
22      111.27000000     54.53810000     -8.36420000    -13.08380000 #  c3h       c3h        o3e   
23      104.50000000     35.74540000    -10.00670000     -6.27290000 #  c3h       o3e        c3h   
24      111.00000000     44.32340000     -9.44540000      0.00000000 #  cp         c2         cp   
25      111.00000000     44.32340000     -9.44540000      0.00000000 #  cp         c2       hpan   
26      111.00000000     44.32340000     -9.44540000      0.00000000 #  cp         c3       hpan   
27      118.90000000     61.02260000    -34.99310000      0.00000000 #  cp         cp         cp   
28      117.94000000     35.15580000    -12.46820000      0.00000000 #  cp         cp       hpan   
29      121.45840000     61.06470000    -21.61720000      0.00000000 #  cp         cp         nn   
30      123.42000000     73.67810000    -21.67870000      0.00000000 #  cp         cp         oc   
31      111.87250000     40.83690000    -15.66730000      0.00000000 #  cp         nn         hn   
32      107.51300000     42.51820000    -21.75660000     -4.33720000 #  hn         nn         hn   
33      108.72800000     58.54460000    -10.80880000    -12.40060000 #  hpan       c1         oh   
34      107.66000000     39.64100000    -12.92100000     -2.43180000 #  hpan       c2       hpan   
35      109.50000000     50.00000000      0.00000000      0.00000000 #  hpan       c2         nn   
36      108.72800000     58.54460000    -10.80880000    -12.40060000 #  hpan       c2         oc   
37      107.66000000     39.64100000    -12.92100000     -2.43180000 #  hpan       c3       hpan   
38      107.66000000     39.64100000    -12.92100000     -2.43180000 #  hpan      c3h       hpan   
39      108.72800000     58.54460000    -10.80880000    -12.40060000 #  hpan      c3h        o3e   

Dihedral Coeffs  # class2

1         0.00000000      0.00000000      0.03160000      0.00000000     -0.16810000      0.00000000 #  c2         c1        c2       hpan   
2        -0.14320000      0.00000000      0.06170000      0.00000000     -0.10830000      0.00000000 #  hpan       c1        c2       hpan   
3         0.00000000      0.00000000      0.00000000      0.00000000      0.15800000      0.00000000 #  c2         c1        c2         nn   
4         0.00000000      0.00000000      0.00000000      0.00000000      0.15800000      0.00000000 #  hpan       c1        c2         nn   
5         0.71370000      0.00000000      0.26600000      0.00000000     -0.25450000      0.00000000 #  c2         c1        c2         oc   
6        -0.14350000      0.00000000      0.25300000      0.00000000     -0.09050000      0.00000000 #  hpan       c1        c2         oc   
7        -0.67320000      0.00000000     -0.47780000      0.00000000     -0.16700000      0.00000000 #  c2         c1        oh         ho   
8         0.00000000      0.00000000      0.00000000      0.00000000      0.15800000      0.00000000 #  nn         c2        c1         oh   
9        -0.18200000      0.00000000     -0.10840000      0.00000000     -0.70470000      0.00000000 #  oc         c2        c1         oh   
10       -0.14350000      0.00000000      0.25300000      0.00000000     -0.09050000      0.00000000 #  hpan       c2        c1         oh   
11       -0.14320000      0.00000000      0.06170000      0.00000000     -0.10830000      0.00000000 #  hpan       c2        c3       hpan   
12       -0.02280000      0.00000000      0.02800000      0.00000000     -0.18630000      0.00000000 #  cp         c2        c3       hpan   
13       -0.14320000      0.00000000      0.06170000      0.00000000     -0.10830000      0.00000000 #  hpan       c2       c3h       hpan   
14       -0.14350000      0.00000000      0.25300000      0.00000000     -0.09050000      0.00000000 #  hpan       c2       c3h        o3e   
15       -0.28020000      0.00000000     -0.06780000      0.00000000     -0.01220000      0.00000000 #  cp         c2        cp         cp   
16       -0.28020000      0.00000000     -0.06780000      0.00000000     -0.01220000      0.00000000 #  c3         c2        cp         cp   
17        0.00000000      0.00000000      0.00000000      0.00000000      0.00000000      0.00000000 #  c1         c2        nn         c2   
18        0.00000000      0.00000000      0.00000000      0.00000000      0.00000000      0.00000000 #  c1         c2        nn         cp   
19        0.00000000      0.00000000      0.00000000      0.00000000      0.13000000      0.00000000 #  c3h        c2        oc         cp   
20        0.00000000      0.00000000      0.00000000      0.00000000      0.13000000      0.00000000 #  c1         c2        oc         cp   
21        0.00000000      0.00000000      0.03160000      0.00000000     -0.16810000      0.00000000 #  c3h       c3h        c2       hpan   
22        0.71370000      0.00000000      0.26600000      0.00000000     -0.25450000      0.00000000 #  c3h       c3h        c2         oc   
23       -0.18200000      0.00000000     -0.10840000      0.00000000     -0.70470000      0.00000000 #  o3e       c3h        c2         oc   
24       -0.14350000      0.00000000      0.25300000      0.00000000     -0.09050000      0.00000000 #  hpan      c3h        c2         oc   
25        0.00000000      0.00000000      0.03160000      0.00000000     -0.16810000      0.00000000 #  c2        c3h       c3h       hpan   
26       -0.14320000      0.00000000      0.06170000      0.00000000     -0.10830000      0.00000000 #  hpan      c3h       c3h       hpan   
27        0.71370000      0.00000000      0.26600000      0.00000000     -0.25450000      0.00000000 #  c2        c3h       c3h        o3e   
28       -0.14350000      0.00000000      0.25300000      0.00000000     -0.09050000      0.00000000 #  hpan      c3h       c3h        o3e   
29       -0.52030000      0.00000000     -0.30280000      0.00000000     -0.34500000      0.00000000 #  c2        c3h       o3e        c3h   
30       -0.28010000      0.00000000     -0.06780000      0.00000000     -0.01220000      0.00000000 #  hpan       c2        cp         cp   
31       -0.28010000      0.00000000     -0.06780000      0.00000000     -0.01220000      0.00000000 #  hpan       c3        cp         cp   
32        0.00000000      0.00000000      4.40720000      0.00000000      0.00000000      0.00000000 #  c3         cp        cp         cp   
33        8.36670000      0.00000000      1.19320000      0.00000000      0.00000000      0.00000000 #  cp         cp        cp         cp   
34        0.00000000      0.00000000      4.40720000      0.00000000      0.00000000      0.00000000 #  c2         cp        cp         cp   
35        0.00000000      0.00000000      1.87690000      0.00000000      0.00000000      0.00000000 #  hpan       cp        cp       hpan   
36        0.00000000      0.00000000      3.96610000      0.00000000      0.00000000      0.00000000 #  cp         cp        cp       hpan   
37        0.00000000      0.00000000      1.55900000      0.00000000      0.00000000      0.00000000 #  c2         cp        cp       hpan   
38        0.00000000      0.00000000      3.00000000      0.00000000      0.00000000      0.00000000 #  c3         cp        cp         nn   
39        0.00000000      0.00000000      5.38260000      0.00000000      0.00000000      0.00000000 #  cp         cp        cp         nn   
40        0.00000000      0.00000000      3.00000000      0.00000000      0.00000000      0.00000000 #  c2         cp        cp         nn   
41        0.00000000      0.00000000      4.84980000      0.00000000      0.00000000      0.00000000 #  cp         cp        cp         oc   
42        0.00000000      0.00000000      1.72340000      0.00000000      0.00000000      0.00000000 #  hpan       cp        cp         oc   
43        0.00000000      0.00000000      1.21900000      0.00000000      0.00000000      0.00000000 #  cp         cp        nn         hn   
44        0.00000000      0.00000000      0.00000000      0.00000000      0.00000000      0.00000000 #  hpan       c2        nn         c2   
45        0.00000000      0.00000000      0.00000000      0.00000000      0.00000000      0.00000000 #  hpan       c2        nn         cp   
46        0.00000000      0.00000000      2.25000000      0.00000000      0.00000000      0.00000000 #  cp         cp        nn         c2   
47        0.53020000      0.00000000      0.00000000      0.00000000     -0.39660000      0.00000000 #  hpan      c3h       o3e        c3h   
48        0.95130000      0.00000000      0.11550000      0.00000000      0.07200000      0.00000000 #  hpan       c2        oc         cp   
49        0.00000000      0.00000000      1.50000000      0.00000000      0.00000000      0.00000000 #  cp         cp        oc         c2   
50        0.18630000      0.00000000     -0.43380000      0.00000000     -0.21210000      0.00000000 #  hpan       c1        oh         ho   

Improper Coeffs  # class2

1         7.81530000      0.00000000 #  c2         cp        cp        cp      nb==3   
2         0.10000000      0.00000000 #  c2         nn        c2        cp      nb==3   
3         7.81530000      0.00000000 #  c3         cp        cp        cp      nb==3   
4         4.89120000      0.00000000 #  cp         cp        cp       hpan     nb==3   
5        10.78550000      0.00000000 #  cp         cp        cp        nn      nb==3   
6        13.04210000      0.00000000 #  cp         cp        cp        oc      nb==3   
7         0.00000000      0.00000000 #  cp         nn        hn        hn      nb==3   
8         0.00000000      0.00000000 #  c1         c2       hpan      hpan     nb!=3   
9         0.00000000      0.00000000 #  c1         c2       hpan       nn      nb!=3   
10        0.00000000      0.00000000 #  c1         c2       hpan       oc      nb!=3   
11        0.00000000      0.00000000 #  c2         c1        c2       hpan     nb!=3   
12        0.00000000      0.00000000 #  c2         c1        c2        oh      nb!=3   
13        0.00000000      0.00000000 #  c2         c1       hpan       oh      nb!=3   
14        0.00000000      0.00000000 #  c2         c3       hpan      hpan     nb!=3   
15        0.00000000      0.00000000 #  c2        c3h       c3h       hpan     nb!=3   
16        0.00000000      0.00000000 #  c2        c3h       c3h       o3e      nb!=3   
17        0.00000000      0.00000000 #  c2        c3h       hpan      o3e      nb!=3   
18        0.00000000      0.00000000 #  c3         c2        cp       hpan     nb!=3   
19        0.00000000      0.00000000 #  c3         c2       hpan      hpan     nb!=3   
20        0.00000000      0.00000000 #  c3h        c2       hpan      hpan     nb!=3   
21        0.00000000      0.00000000 #  c3h        c2       hpan       oc      nb!=3   
22        0.00000000      0.00000000 #  c3h       c3h       hpan      hpan     nb!=3   
23        0.00000000      0.00000000 #  c3h       c3h       hpan      o3e      nb!=3   
24        0.00000000      0.00000000 #  cp         c2        cp       hpan     nb!=3   
25        0.00000000      0.00000000 #  cp         c2       hpan      hpan     nb!=3   
26        0.00000000      0.00000000 #  cp         c3       hpan      hpan     nb!=3   
27        0.00000000      0.00000000 #  hpan       c2       hpan       nn      nb!=3   
28        0.00000000      0.00000000 #  hpan       c2       hpan       oc      nb!=3   
29        0.00000000      0.00000000 #  hpan       c3       hpan      hpan     nb!=3   
30        0.00000000      0.00000000 #  hpan      c3h       hpan      o3e      nb!=3   

BondBond Coeffs  # class2

1         3.38720000      1.53000000      1.10100000 #  c1         c2       hpan   
2         0.00000000      1.53000000      1.47000000 #  c1         c2         nn   
3        11.43180000      1.53000000      1.42000000 #  c1         c2         oc   
4        -9.68790000      1.42000000      0.96500000 #  c1         oh         ho   
5         0.00000000      1.53000000      1.53000000 #  c2         c1         c2   
6         3.38720000      1.53000000      1.10100000 #  c2         c1       hpan   
7        11.43180000      1.53000000      1.42000000 #  c2         c1         oh   
8         3.38720000      1.53000000      1.10100000 #  c2         c3       hpan   
9         0.00000000      1.53000000      1.53000000 #  c2        c3h        c3h   
10        3.38720000      1.53000000      1.10100000 #  c2        c3h       hpan   
11       11.43180000      1.53000000      1.42000000 #  c2        c3h        o3e   
12       12.06760000      1.50100000      1.41700000 #  c2         cp         cp   
13        0.00000000      1.47000000      1.47000000 #  c2         nn         c2   
14        0.00000000      1.47000000      1.39120000 #  c2         nn         cp   
15        0.00000000      1.42000000      1.37680000 #  c2         oc         cp   
16        0.00000000      1.53000000      1.50100000 #  c3         c2         cp   
17        3.38720000      1.53000000      1.10100000 #  c3         c2       hpan   
18       12.06760000      1.50100000      1.41700000 #  c3         cp         cp   
19        3.38720000      1.53000000      1.10100000 #  c3h        c2       hpan   
20       11.43180000      1.53000000      1.42000000 #  c3h        c2         oc   
21        3.38720000      1.53000000      1.10100000 #  c3h       c3h       hpan   
22       11.43180000      1.53000000      1.42000000 #  c3h       c3h        o3e   
23       -7.11310000      1.42000000      1.42000000 #  c3h       o3e        c3h   
24        0.00000000      1.50100000      1.50100000 #  cp         c2         cp   
25        2.91680000      1.50100000      1.10100000 #  cp         c2       hpan   
26        2.91680000      1.50100000      1.10100000 #  cp         c3       hpan   
27       68.28560000      1.41700000      1.41700000 #  cp         cp         cp   
28        1.07950000      1.41700000      1.09820000 #  cp         cp       hpan   
29       46.95130000      1.41700000      1.39120000 #  cp         cp         nn   
30       48.47540000      1.41700000      1.37680000 #  cp         cp         oc   
31        4.53930000      1.39120000      1.00120000 #  cp         nn         hn   
32       -9.94470000      1.00120000      1.00120000 #  hn         nn         hn   
33       23.19790000      1.10100000      1.42000000 #  hpan       c1         oh   
34        5.33160000      1.10100000      1.10100000 #  hpan       c2       hpan   
35        0.00000000      1.10100000      1.47000000 #  hpan       c2         nn   
36       23.19790000      1.10100000      1.42000000 #  hpan       c2         oc   
37        5.33160000      1.10100000      1.10100000 #  hpan       c3       hpan   
38        5.33160000      1.10100000      1.10100000 #  hpan      c3h       hpan   
39       23.19790000      1.10100000      1.42000000 #  hpan      c3h        o3e   

BondAngle Coeffs  # class2

1        20.75400000     11.42100000      1.53000000      1.10100000 #  c1         c2       hpan   
2         0.00000000      0.00000000      1.53000000      1.47000000 #  c1         c2         nn   
3         2.68680000     20.40330000      1.53000000      1.42000000 #  c1         c2         oc   
4        28.58000000     18.92770000      1.42000000      0.96500000 #  c1         oh         ho   
5         8.01600000      8.01600000      1.53000000      1.53000000 #  c2         c1         c2   
6        20.75400000     11.42100000      1.53000000      1.10100000 #  c2         c1       hpan   
7         2.68680000     20.40330000      1.53000000      1.42000000 #  c2         c1         oh   
8        20.75400000     11.42100000      1.53000000      1.10100000 #  c2         c3       hpan   
9         8.01600000      8.01600000      1.53000000      1.53000000 #  c2        c3h        c3h   
10       20.75400000     11.42100000      1.53000000      1.10100000 #  c2        c3h       hpan   
11        2.68680000     20.40330000      1.53000000      1.42000000 #  c2        c3h        o3e   
12       47.05790000     31.07710000      1.50100000      1.41700000 #  c2         cp         cp   
13        0.00000000      0.00000000      1.47000000      1.47000000 #  c2         nn         c2   
14        0.00000000      0.00000000      1.47000000      1.39120000 #  c2         nn         cp   
15        0.00000000      0.00000000      1.42000000      1.37680000 #  c2         oc         cp   
16        0.00000000      0.00000000      1.53000000      1.50100000 #  c3         c2         cp   
17       20.75400000     11.42100000      1.53000000      1.10100000 #  c3         c2       hpan   
18       47.05790000     31.07710000      1.50100000      1.41700000 #  c3         cp         cp   
19       20.75400000     11.42100000      1.53000000      1.10100000 #  c3h        c2       hpan   
20        2.68680000     20.40330000      1.53000000      1.42000000 #  c3h        c2         oc   
21       20.75400000     11.42100000      1.53000000      1.10100000 #  c3h       c3h       hpan   
22        2.68680000     20.40330000      1.53000000      1.42000000 #  c3h       c3h        o3e   
23       -2.81120000     -2.81120000      1.42000000      1.42000000 #  c3h       o3e        c3h   
24        0.00000000      0.00000000      1.50100000      1.50100000 #  cp         c2         cp   
25       26.46080000     11.77170000      1.50100000      1.10100000 #  cp         c2       hpan   
26       26.46080000     11.77170000      1.50100000      1.10100000 #  cp         c3       hpan   
27       28.87080000     28.87080000      1.41700000      1.41700000 #  cp         cp         cp   
28       20.00330000     24.21830000      1.41700000      1.09820000 #  cp         cp       hpan   
29       39.40400000     73.65480000      1.41700000      1.39120000 #  cp         cp         nn   
30       58.47900000    107.68060000      1.41700000      1.37680000 #  cp         cp         oc   
31       38.57040000     16.55240000      1.39120000      1.00120000 #  cp         nn         hn   
32       17.15970000     17.15970000      1.00120000      1.00120000 #  hn         nn         hn   
33        4.61890000     55.32700000      1.10100000      1.42000000 #  hpan       c1         oh   
34       18.10300000     18.10300000      1.10100000      1.10100000 #  hpan       c2       hpan   
35        0.00000000      0.00000000      1.10100000      1.47000000 #  hpan       c2         nn   
36        4.61890000     55.32700000      1.10100000      1.42000000 #  hpan       c2         oc   
37       18.10300000     18.10300000      1.10100000      1.10100000 #  hpan       c3       hpan   
38       18.10300000     18.10300000      1.10100000      1.10100000 #  hpan      c3h       hpan   
39        4.61890000     55.32700000      1.10100000      1.42000000 #  hpan      c3h        o3e   

AngleAngleTorsion Coeffs  # class2

1       -16.16400000    112.67000000    110.77000000 #  c2         c1        c2       hpan   
2       -12.56400000    110.77000000    110.77000000 #  hpan       c1        c2       hpan   
3         0.00000000    112.67000000    114.00000000 #  c2         c1        c2         nn   
4         0.00000000    110.77000000    114.00000000 #  hpan       c1        c2         nn   
5       -29.04200000    112.67000000    111.27000000 #  c2         c1        c2         oc   
6       -20.20060000    110.77000000    111.27000000 #  hpan       c1        c2         oc   
7       -12.10380000    111.27000000    105.80000000 #  c2         c1        oh         ho   
8         0.00000000    114.00000000    111.27000000 #  nn         c2        c1         oh   
9       -14.04840000    111.27000000    111.27000000 #  oc         c2        c1         oh   
10      -20.20060000    110.77000000    111.27000000 #  hpan       c2        c1         oh   
11      -12.56400000    110.77000000    110.77000000 #  hpan       c2        c3       hpan   
12        0.00000000    108.40000000    110.77000000 #  cp         c2        c3       hpan   
13      -12.56400000    110.77000000    110.77000000 #  hpan       c2       c3h       hpan   
14      -20.20060000    110.77000000    111.27000000 #  hpan       c2       c3h        o3e   
15        0.00000000    111.00000000    120.05000000 #  cp         c2        cp         cp   
16        0.00000000    108.40000000    120.05000000 #  c3         c2        cp         cp   
17        0.00000000    114.00000000    120.00000000 #  c1         c2        nn         c2   
18        0.00000000    114.00000000    120.00000000 #  c1         c2        nn         cp   
19        0.00000000    111.27000000    102.96950000 #  c3h        c2        oc         cp   
20        0.00000000    111.27000000    102.96950000 #  c1         c2        oc         cp   
21      -16.16400000    112.67000000    110.77000000 #  c3h       c3h        c2       hpan   
22      -29.04200000    112.67000000    111.27000000 #  c3h       c3h        c2         oc   
23      -14.04840000    111.27000000    111.27000000 #  o3e       c3h        c2         oc   
24      -20.20060000    110.77000000    111.27000000 #  hpan      c3h        c2         oc   
25      -16.16400000    112.67000000    110.77000000 #  c2        c3h       c3h       hpan   
26      -12.56400000    110.77000000    110.77000000 #  hpan      c3h       c3h       hpan   
27      -29.04200000    112.67000000    111.27000000 #  c2        c3h       c3h        o3e   
28      -20.20060000    110.77000000    111.27000000 #  hpan      c3h       c3h        o3e   
29      -19.00590000    111.27000000    104.50000000 #  c2        c3h       o3e        c3h   
30       -5.88880000    111.00000000    120.05000000 #  hpan       c2        cp         cp   
31       -5.88880000    111.00000000    120.05000000 #  hpan       c3        cp         cp   
32      -14.40970000    120.05000000    118.90000000 #  c3         cp        cp         cp   
33        0.00000000    118.90000000    118.90000000 #  cp         cp        cp         cp   
34      -14.40970000    120.05000000    118.90000000 #  c2         cp        cp         cp   
35        0.35980000    117.94000000    117.94000000 #  hpan       cp        cp       hpan   
36       -4.81410000    118.90000000    117.94000000 #  cp         cp        cp       hpan   
37        4.44440000    120.05000000    117.94000000 #  c2         cp        cp       hpan   
38        0.00000000    120.05000000    121.45840000 #  c3         cp        cp         nn   
39        0.00000000    118.90000000    121.45840000 #  cp         cp        cp         nn   
40        0.00000000    120.05000000    121.45840000 #  c2         cp        cp         nn   
41      -21.02470000    118.90000000    123.42000000 #  cp         cp        cp         oc   
42        4.22960000    117.94000000    123.42000000 #  hpan       cp        cp         oc   
43       -7.17550000    121.45840000    111.87250000 #  cp         cp        nn         hn   
44        0.00000000    109.50000000    120.00000000 #  hpan       c2        nn         c2   
45        0.00000000    109.50000000    120.00000000 #  hpan       c2        nn         cp   
46        0.00000000    121.45840000    120.00000000 #  cp         cp        nn         c2   
47      -16.44380000    108.72800000    104.50000000 #  hpan      c3h       o3e        c3h   
48        0.00000000    108.72800000    102.96950000 #  hpan       c2        oc         cp   
49        0.00000000    123.42000000    102.96950000 #  cp         cp        oc         c2   
50      -10.50930000    108.72800000    105.80000000 #  hpan       c1        oh         ho   

EndBondTorsion Coeffs  # class2

1         0.24860000      0.24220000     -0.09250000      0.08140000      0.05910000      0.22190000      1.53000000      1.10100000 #  c2         c1        c2       hpan   
2         0.21300000      0.31200000      0.07770000      0.21300000      0.31200000      0.07770000      1.10100000      1.10100000 #  hpan       c1        c2       hpan   
3         0.00000000      0.00000000      0.00000000      0.00000000      0.00000000      0.00000000      1.53000000      1.47000000 #  c2         c1        c2         nn   
4         0.00000000      0.00000000      0.00000000      0.00000000      0.00000000      0.00000000      1.10100000      1.47000000 #  hpan       c1        c2         nn   