HEADER,  pre_rxn1.mol2  read w/ mol2SYBYL2lmp > atom_typing v1.5 / 4 July 2023 w/PCFF-IFF atom-types > all2lmp: v1.9 / 31 July 2023  Class: 2; Reduce = [3, 5]; BondingIDs = [12, 33, 12, 15];
74 atoms
77 bonds
136 angles
180 dihedrals
68 impropers

9 atom types
15 bond types
28 angle types
33 dihedral types
22 improper types

-11.773101351 9.624098649 xlo xhi
-6.993501351 8.614298649 ylo yhi
-3.628504054 2.485395946 zlo zhi

Masses

1   12.01115000  #  c2   
2   12.01115000  #  c3   
3   12.01115000  #  c3h  
4   12.01115000  #  cp   
5    1.00797000  #  hn   
6    1.00797000  #  hpan 
7   14.00670000  #  nn   
8   15.99940000  #  o3e  
9   15.99940000  #  oc   

Pair Coeffs  # lj/class2/coul/long

1         0.05400000      4.01000000 #  c2   
2         0.05400000      3.90000000 #  c3   
3         0.05400000      4.01000000 #  c3h  
4         0.06400000      4.01000000 #  cp   
5         0.01300000      1.09800000 #  hn   
6         0.02000000      2.30000000 #  hpan 
7         0.06500000      4.07000000 #  nn   
8         0.24000000      3.53500000 #  o3e  
9         0.24000000      3.53500000 #  oc   

Bond Coeffs  # class2

1         1.53000000    299.67000000   -501.77000000    679.81000000 #  c2          c3   
2         1.53000000    299.67000000   -501.77000000    679.81000000 #  c2         c3h   
3         1.50100000    321.90210000   -521.82080000    572.16280000 #  c2          cp   
4         1.10100000    345.00000000   -691.89000000    844.60000000 #  c2        hpan   
5         1.42000000    400.39540000   -835.19510000   1313.01420000 #  c2          oc   
6         1.50100000    321.90210000   -521.82080000    572.16280000 #  c3          cp   
7         1.10100000    345.00000000   -691.89000000    844.60000000 #  c3        hpan   
8         1.53000000    299.67000000   -501.77000000    679.81000000 #  c3h        c3h   
9         1.10100000    345.00000000   -691.89000000    844.60000000 #  c3h       hpan   
10        1.42000000    400.39540000   -835.19510000   1313.01420000 #  c3h        o3e   
11        1.41700000    470.83610000   -627.61790000   1327.63450000 #  cp          cp   
12        1.09820000    372.82510000   -803.45260000    894.31730000 #  cp        hpan   
13        1.39120000    447.04380000   -784.53460000    886.16710000 #  cp          nn   
14        1.37680000    428.87980000   -738.23510000   1114.96550000 #  cp          oc   
15        1.00120000    465.86080000  -1066.23600000   1496.56470000 #  hn          nn   

Angle Coeffs  # class2

1       110.77000000     41.45300000    -10.60400000      5.12900000 #  c2         c3       hpan   
2       112.67000000     39.51600000     -7.44300000     -9.55830000 #  c2        c3h        c3h   
3       110.77000000     41.45300000    -10.60400000      5.12900000 #  c2        c3h       hpan   
4       111.27000000     54.53810000     -8.36420000    -13.08380000 #  c2        c3h        o3e   
5       120.05000000     44.71480000    -22.73520000      0.00000000 #  c2         cp         cp   
6       102.96950000     38.97390000     -6.25950000     -8.17100000 #  c2         oc         cp   
7       108.40000000     43.95940000     -8.39240000     -9.33790000 #  c3         c2         cp   
8       110.77000000     41.45300000    -10.60400000      5.12900000 #  c3         c2       hpan   
9       120.05000000     44.71480000    -22.73520000      0.00000000 #  c3         cp         cp   
10      110.77000000     41.45300000    -10.60400000      5.12900000 #  c3h        c2       hpan   
11      111.27000000     54.53810000     -8.36420000    -13.08380000 #  c3h        c2         oc   
12      110.77000000     41.45300000    -10.60400000      5.12900000 #  c3h       c3h       hpan   
13      111.27000000     54.53810000     -8.36420000    -13.08380000 #  c3h       c3h        o3e   
14      104.50000000     35.74540000    -10.00670000     -6.27290000 #  c3h       o3e        c3h   
15      111.00000000     44.32340000     -9.44540000      0.00000000 #  cp         c2         cp   
16      111.00000000     44.32340000     -9.44540000      0.00000000 #  cp         c2       hpan   
17      111.00000000     44.32340000     -9.44540000      0.00000000 #  cp         c3       hpan   
18      118.90000000     61.02260000    -34.99310000      0.00000000 #  cp         cp         cp   
19      117.94000000     35.15580000    -12.46820000      0.00000000 #  cp         cp       hpan   
20      121.45840000     61.06470000    -21.61720000      0.00000000 #  cp         cp         nn   
21      123.42000000     73.67810000    -21.67870000      0.00000000 #  cp         cp         oc   
22      111.87250000     40.83690000    -15.66730000      0.00000000 #  cp         nn         hn   
23      107.51300000     42.51820000    -21.75660000     -4.33720000 #  hn         nn         hn   
24      107.66000000     39.64100000    -12.92100000     -2.43180000 #  hpan       c2       hpan   
25      108.72800000     58.54460000    -10.80880000    -12.40060000 #  hpan       c2         oc   
26      107.66000000     39.64100000    -12.92100000     -2.43180000 #  hpan       c3       hpan   
27      107.66000000     39.64100000    -12.92100000     -2.43180000 #  hpan      c3h       hpan   
28      108.72800000     58.54460000    -10.80880000    -12.40060000 #  hpan      c3h        o3e   

Dihedral Coeffs  # class2

1        -0.14320000      0.00000000      0.06170000      0.00000000     -0.10830000      0.00000000 #  hpan       c2        c3       hpan   
2        -0.02280000      0.00000000      0.02800000      0.00000000     -0.18630000      0.00000000 #  cp         c2        c3       hpan   
3        -0.14320000      0.00000000      0.06170000      0.00000000     -0.10830000      0.00000000 #  hpan       c2       c3h       hpan   
4        -0.14350000      0.00000000      0.25300000      0.00000000     -0.09050000      0.00000000 #  hpan       c2       c3h        o3e   
5        -0.28020000      0.00000000     -0.06780000      0.00000000     -0.01220000      0.00000000 #  c3         c2        cp         cp   
6        -0.28020000      0.00000000     -0.06780000      0.00000000     -0.01220000      0.00000000 #  cp         c2        cp         cp   
7         0.00000000      0.00000000      0.00000000      0.00000000      0.13000000      0.00000000 #  c3h        c2        oc         cp   
8         0.00000000      0.00000000      0.03160000      0.00000000     -0.16810000      0.00000000 #  c3h       c3h        c2       hpan   
9        -0.18200000      0.00000000     -0.10840000      0.00000000     -0.70470000      0.00000000 #  o3e       c3h        c2         oc   
10       -0.14350000      0.00000000      0.25300000      0.00000000     -0.09050000      0.00000000 #  hpan      c3h        c2         oc   
11        0.71370000      0.00000000      0.26600000      0.00000000     -0.25450000      0.00000000 #  c3h       c3h        c2         oc   
12       -0.14320000      0.00000000      0.06170000      0.00000000     -0.10830000      0.00000000 #  hpan      c3h       c3h       hpan   
13        0.00000000      0.00000000      0.03160000      0.00000000     -0.16810000      0.00000000 #  c2        c3h       c3h       hpan   
14       -0.14350000      0.00000000      0.25300000      0.00000000     -0.09050000      0.00000000 #  hpan      c3h       c3h        o3e   
15        0.71370000      0.00000000      0.26600000      0.00000000     -0.25450000      0.00000000 #  c2        c3h       c3h        o3e   
16       -0.52030000      0.00000000     -0.30280000      0.00000000     -0.34500000      0.00000000 #  c2        c3h       o3e        c3h   
17       -0.28010000      0.00000000     -0.06780000      0.00000000     -0.01220000      0.00000000 #  hpan       c2        cp         cp   
18       -0.28010000      0.00000000     -0.06780000      0.00000000     -0.01220000      0.00000000 #  hpan       c3        cp         cp   
19        8.36670000      0.00000000      1.19320000      0.00000000      0.00000000      0.00000000 #  cp         cp        cp         cp   
20        0.00000000      0.00000000      4.40720000      0.00000000      0.00000000      0.00000000 #  c3         cp        cp         cp   
21        0.00000000      0.00000000      4.40720000      0.00000000      0.00000000      0.00000000 #  c2         cp        cp         cp   
22        0.00000000      0.00000000      3.96610000      0.00000000      0.00000000      0.00000000 #  cp         cp        cp       hpan   
23        0.00000000      0.00000000      1.87690000      0.00000000      0.00000000      0.00000000 #  hpan       cp        cp       hpan   
24        0.00000000      0.00000000      1.55900000      0.00000000      0.00000000      0.00000000 #  c2         cp        cp       hpan   
25        0.00000000      0.00000000      3.00000000      0.00000000      0.00000000      0.00000000 #  c2         cp        cp         nn   
26        0.00000000      0.00000000      5.38260000      0.00000000      0.00000000      0.00000000 #  cp         cp        cp         nn   
27        0.00000000      0.00000000      3.00000000      0.00000000      0.00000000      0.00000000 #  c3         cp        cp         nn   
28        0.00000000      0.00000000      4.84980000      0.00000000      0.00000000      0.00000000 #  cp         cp        cp         oc   
29        0.00000000      0.00000000      1.72340000      0.00000000      0.00000000      0.00000000 #  hpan       cp        cp         oc   
30        0.00000000      0.00000000      1.21900000      0.00000000      0.00000000      0.00000000 #  cp         cp        nn         hn   
31        0.53020000      0.00000000      0.00000000      0.00000000     -0.39660000      0.00000000 #  hpan      c3h       o3e        c3h   
32        0.95130000      0.00000000      0.11550000      0.00000000      0.07200000      0.00000000 #  hpan       c2        oc         cp   
33        0.00000000      0.00000000      1.50000000      0.00000000      0.00000000      0.00000000 #  cp         cp        oc         c2   

Improper Coeffs  # class2

1         7.81530000      0.00000000 #  c2         cp        cp        cp      nb==3   
2         7.81530000      0.00000000 #  c3         cp        cp        cp      nb==3   
3         4.89120000      0.00000000 #  cp         cp        cp       hpan     nb==3   
4        10.78550000      0.00000000 #  cp         cp        cp        nn      nb==3   
5        13.04210000      0.00000000 #  cp         cp        cp        oc      nb==3   
6         0.00000000      0.00000000 #  cp         nn        hn        hn      nb==3   
7         0.00000000      0.00000000 #  c2         c3       hpan      hpan     nb!=3   
8         0.00000000      0.00000000 #  c2        c3h       c3h       hpan     nb!=3   
9         0.00000000      0.00000000 #  c2        c3h       c3h       o3e      nb!=3   
10        0.00000000      0.00000000 #  c2        c3h       hpan      o3e      nb!=3   
11        0.00000000      0.00000000 #  c3         c2        cp       hpan     nb!=3   
12        0.00000000      0.00000000 #  c3         c2       hpan      hpan     nb!=3   
13        0.00000000      0.00000000 #  c3h        c2       hpan      hpan     nb!=3   
14        0.00000000      0.00000000 #  c3h        c2       hpan       oc      nb!=3   
15        0.00000000      0.00000000 #  c3h       c3h       hpan      hpan     nb!=3   
16        0.00000000      0.00000000 #  c3h       c3h       hpan      o3e      nb!=3   
17        0.00000000      0.00000000 #  cp         c2        cp       hpan     nb!=3   
18        0.00000000      0.00000000 #  cp         c2       hpan      hpan     nb!=3   
19        0.00000000      0.00000000 #  cp         c3       hpan      hpan     nb!=3   
20        0.00000000      0.00000000 #  hpan       c2       hpan       oc      nb!=3   
21        0.00000000      0.00000000 #  hpan       c3       hpan      hpan     nb!=3   
22        0.00000000      0.00000000 #  hpan      c3h       hpan      o3e      nb!=3   

BondBond Coeffs  # class2

1         3.38720000      1.53000000      1.10100000 #  c2         c3       hpan   
2         0.00000000      1.53000000      1.53000000 #  c2        c3h        c3h   
3         3.38720000      1.53000000      1.10100000 #  c2        c3h       hpan   
4        11.43180000      1.53000000      1.42000000 #  c2        c3h        o3e   
5        12.06760000      1.50100000      1.41700000 #  c2         cp         cp   
6         0.00000000      1.42000000      1.37680000 #  c2         oc         cp   
7         0.00000000      1.53000000      1.50100000 #  c3         c2         cp   
8         3.38720000      1.53000000      1.10100000 #  c3         c2       hpan   
9        12.06760000      1.50100000      1.41700000 #  c3         cp         cp   
10        3.38720000      1.53000000      1.10100000 #  c3h        c2       hpan   
11       11.43180000      1.53000000      1.42000000 #  c3h        c2         oc   
12        3.38720000      1.53000000      1.10100000 #  c3h       c3h       hpan   
13       11.43180000      1.53000000      1.42000000 #  c3h       c3h        o3e   
14       -7.11310000      1.42000000      1.42000000 #  c3h       o3e        c3h   
15        0.00000000      1.50100000      1.50100000 #  cp         c2         cp   
16        2.91680000      1.50100000      1.10100000 #  cp         c2       hpan   
17        2.91680000      1.50100000      1.10100000 #  cp         c3       hpan   
18       68.28560000      1.41700000      1.41700000 #  cp         cp         cp   
19        1.07950000      1.41700000      1.09820000 #  cp         cp       hpan   
20       46.95130000      1.41700000      1.39120000 #  cp         cp         nn   
21       48.47540000      1.41700000      1.37680000 #  cp         cp         oc   
22        4.53930000      1.39120000      1.00120000 #  cp         nn         hn   
23       -9.94470000      1.00120000      1.00120000 #  hn         nn         hn   
24        5.33160000      1.10100000      1.10100000 #  hpan       c2       hpan   
25       23.19790000      1.10100000      1.42000000 #  hpan       c2         oc   
26        5.33160000      1.10100000      1.10100000 #  hpan       c3       hpan   
27        5.33160000      1.10100000      1.10100000 #  hpan      c3h       hpan   
28       23.19790000      1.10100000      1.42000000 #  hpan      c3h        o3e   

BondAngle Coeffs  # class2

1        20.75400000     11.42100000      1.53000000      1.10100000 #  c2         c3       hpan   
2         8.01600000      8.01600000      1.53000000      1.53000000 #  c2        c3h        c3h   
3        20.75400000     11.42100000      1.53000000      1.10100000 #  c2        c3h       hpan   
4         2.68680000     20.40330000      1.53000000      1.42000000 #  c2        c3h        o3e   
5        47.05790000     31.07710000      1.50100000      1.41700000 #  c2         cp         cp   
6         0.00000000      0.00000000      1.42000000      1.37680000 #  c2         oc         cp   
7         0.00000000      0.00000000      1.53000000      1.50100000 #  c3         c2         cp   
8        20.75400000     11.42100000      1.53000000      1.10100000 #  c3         c2       hpan   
9        47.05790000     31.07710000      1.50100000      1.41700000 #  c3         cp         cp   
10       20.75400000     11.42100000      1.53000000      1.10100000 #  c3h        c2       hpan   
11        2.68680000     20.40330000      1.53000000      1.42000000 #  c3h        c2         oc   
12       20.75400000     11.42100000      1.53000000      1.10100000 #  c3h       c3h       hpan   
13        2.68680000     20.40330000      1.53000000      1.42000000 #  c3h       c3h        o3e   
14       -2.81120000     -2.81120000      1.42000000      1.42000000 #  c3h       o3e        c3h   
15        0.00000000      0.00000000      1.50100000      1.50100000 #  cp         c2         cp   
16       26.46080000     11.77170000      1.50100000      1.10100000 #  cp         c2       hpan   
17       26.46080000     11.77170000      1.50100000      1.10100000 #  cp         c3       hpan   
18       28.87080000     28.87080000      1.41700000      1.41700000 #  cp         cp         cp   
19       20.00330000     24.21830000      1.41700000      1.09820000 #  cp         cp       hpan   
20       39.40400000     73.65480000      1.41700000      1.39120000 #  cp         cp         nn   
21       58.47900000    107.68060000      1.41700000      1.37680000 #  cp         cp         oc   
22       38.57040000     16.55240000      1.39120000      1.00120000 #  cp         nn         hn   
23       17.15970000     17.15970000      1.00120000      1.00120000 #  hn         nn         hn   
24       18.10300000     18.10300000      1.10100000      1.10100000 #  hpan       c2       hpan   
25        4.61890000     55.32700000      1.10100000      1.42000000 #  hpan       c2         oc   
26       18.10300000     18.10300000      1.10100000      1.10100000 #  hpan       c3       hpan   
27       18.10300000     18.10300000      1.10100000      1.10100000 #  hpan      c3h       hpan   
28        4.61890000     55.32700000      1.10100000      1.42000000 #  hpan      c3h        o3e   

AngleAngleTorsion Coeffs  # class2

1       -12.56400000    110.77000000    110.77000000 #  hpan       c2        c3       hpan   
2         0.00000000    108.40000000    110.77000000 #  cp         c2        c3       hpan   
3       -12.56400000    110.77000000    110.77000000 #  hpan       c2       c3h       hpan   
4       -20.20060000    110.77000000    111.27000000 #  hpan       c2       c3h        o3e   
5         0.00000000    108.40000000    120.05000000 #  c3         c2        cp         cp   
6         0.00000000    111.00000000    120.05000000 #  cp         c2        cp         cp   
7         0.00000000    111.27000000    102.96950000 #  c3h        c2        oc         cp   
8       -16.16400000    112.67000000    110.77000000 #  c3h       c3h        c2       hpan   
9       -14.04840000    111.27000000    111.27000000 #  o3e       c3h        c2         oc   
10      -20.20060000    110.77000000    111.27000000 #  hpan      c3h        c2         oc   
11      -29.04200000    112.67000000    111.27000000 #  c3h       c3h        c2         oc   
12      -12.56400000    110.77000000    110.77000000 #  hpan      c3h       c3h       hpan   
13      -16.16400000    112.67000000    110.77000000 #  c2        c3h       c3h       hpan   
14      -20.20060000    110.77000000    111.27000000 #  hpan      c3h       c3h        o3e   
15      -29.04200000    112.67000000    111.27000000 #  c2        c3h       c3h        o3e   
16      -19.00590000    111.27000000    104.50000000 #  c2        c3h       o3e        c3h   
17       -5.88880000    111.00000000    120.05000000 #  hpan       c2        cp         cp   
18       -5.88880000    111.00000000    120.05000000 #  hpan       c3        cp         cp   
19        0.00000000    118.90000000    118.90000000 #  cp         cp        cp         cp   
20      -14.40970000    120.05000000    118.90000000 #  c3         cp        cp         cp   
21      -14.40970000    120.05000000    118.90000000 #  c2         cp        cp         cp   
22       -4.81410000    118.90000000    117.94000000 #  cp         cp        cp       hpan   
23        0.35980000    117.94000000    117.94000000 #  hpan       cp        cp       hpan   
24        4.44440000    120.05000000    117.94000000 #  c2         cp        cp       hpan   
25        0.00000000    120.05000000    121.45840000 #  c2         cp        cp         nn   
26        0.00000000    118.90000000    121.45840000 #  cp         cp        cp         nn   
27        0.00000000    120.05000000    121.45840000 #  c3         cp        cp         nn   
28      -21.02470000    118.90000000    123.42000000 #  cp         cp        cp         oc   
29        4.22960000    117.94000000    123.42000000 #  hpan       cp        cp         oc   
30       -7.17550000    121.45840000    111.87250000 #  cp         cp        nn         hn   
31      -16.44380000    108.72800000    104.50000000 #  hpan      c3h       o3e        c3h   
32        0.00000000    108.72800000    102.96950000 #  hpan       c2        oc         cp   
33        0.00000000    123.42000000    102.96950000 #  cp         cp        oc         c2   

EndBondTorsion Coeffs  # class2

1         0.21300000      0.31200000      0.07770000      0.21300000      0.31200000      0.07770000      1.10100000      1.10100000 #  hpan       c2        c3       hpan   
2         0.00000000      0.00000000      0.00000000      0.00000000      0.00000000      0.00000000      1.50100000      1.10100000 #  cp         c2        c3       hpan   
3         0.21300000      0.31200000      0.07770000      0.21300000      0.31200000      0.07770000      1.10100000      1.10100000 #  hpan       c2       c3h       hpan   
4         0.96810000      0.95510000      0.04360000      0.59030000      0.66690000      0.85840000      1.10100000      1.42000000 #  hpan       c2       c3h        o3e   
5         0.00000000      0.00000000      0.00000000      0.00000000      0.00000000      0.00000000      1.53000000      1.41700000 #  c3         c2        cp         cp   
6         0.00000000      0.00000000      0.00000000      0.00000000      0.00000000      0.00000000      1.50100000      1.41700000 #  cp         c2        cp         cp   
7         0.00000000      0.00000000      0.00000000      0.00000000      0.00000000      0.00000000      1.53000000      1.37680000 #  c3h        c2        oc         cp   
8         0.24860000      0.24220000     -0.09250000      0.08140000      0.05910000      0.22190000      1.53000000      1.10100000 #  c3h       c3h        c2       hpan   
9         1.01650000      0.75530000     -0.46090000      1.01650000      0.75530000     -0.46090000      1.42000000      1.42000000 #  o3e       c3h        c2         oc   
10        0.96810000      0.95510000      0.04360000      0.59030000      0.66690000      0.85840000      1.10100000      1.42000000 #  hpan      c3h        c2         oc   
11       -0.31900000      0.44110000     -0.71740000      1.15380000      0.84090000     -0.91380000      1.53000000      1.42000000 #  c3h       c3h        c2         oc   
12        0.21300000      0.31200000      0.07770000      0.21300000      0.31200000      0.07770000      1.10100000      1.10100000 #  hpan      c3h       c3h       hpan   
13        0.24860000      0.24220000     -0.09250000      0.08140000      0.05910000      0.22190000      1.53000000      1.10100000 #  c2        c3h       c3h       hpan   
14        0.96810000      0.95510000      0.04360000      0.59030000      0.66690000      0.85840000      1.10100000      1.42000000 #  hpan      c3h       c3h        o3e   
15       -0.31900000      0.44110000     -0.71740000      1.15380000      0.84090000     -0.91380000      1.53000000      1.42000000 #  c2        c3h       c3h        o3e   
16       -0.24560000      1.05170000     -0.77950000      0.47410000      1.26350000      0.55760000      1.53000000      1.42000000 #  c2        c3h       o3e        c3h   
17        1.39970000      0.77560000      0.00000000     -0.58350000      1.12200000      0.39780000      1.10100000      1.41700000 #  hpan       c2        cp         cp   
18        1.39970000      0.77560000      0.00000000     -0.58350000      1.12200000      0.39780000      1.10100000      1.41700000 #  hpan       c3        cp         cp   
19       -0.11850000      6.32040000      0.00000000     -0.11850000      6.32040000      0.00000000      1.41700000      1.41700000 #  cp         cp        cp         cp   
20        0.00000000      0.24210000      0.00000000      0.00000000     -0.69180000      0.00000000      1.50100000      1.41700000 #  c3         cp        cp         cp   
21        0.00000000      0.24210000      0.00000000      0.00000000     -0.69180000      0.00000000      1.50100000      1.41700000 #  c2         cp        cp         cp   
22        0.00000000     -6.89580000      0.00000000      0.00000000     -0.46690000      0.00000000      1.41700000      1.09820000 #  cp         cp        cp       hpan   
23        0.00000000     -0.68900000      0.00000000      0.00000000     -0.68900000      0.00000000      1.09820000      1.09820000 #  hpan       cp        cp       hpan   
24        0.00000000     -1.79700000      0.00000000      0.00000000     -0.48790000      0.00000000      1.50100000      1.09820000 #  c2         cp        cp       hpan   
25        0.00000000      0.00000000      0.00000000      0.00000000      0.00000000      0.00000000      1.50100000      1.39120000 #  c2         cp        cp         nn   
26        0.00000000     -6.54040000      0.00000000      0.00000000     -7.34770000      0.00000000      1.41700000      1.39120000 #  cp         cp        cp         nn   
27        0.00000000      0.00000000      0.00000000      0.00000000      0.00000000      0.00000000      1.50100000      1.39120000 #  c3         cp        cp         nn   
28        0.00000000      0.26550000      0.00000000      0.00000000      4.89050000      0.00000000      1.41700000      1.37680000 #  cp         cp        cp         oc   
29        0.00000000     -1.58670000      0.00000000      0.00000000      4.26410000      0.00000000      1.09820000      1.37680000 #  hpan       cp        cp         oc   
30        0.00000000     -3.72810000      0.00000000      0.00000000      0.28490000      0.00000000      1.41700000      1.00120000 #  cp         cp        nn         hn   
31       -0.60540000      1.33390000      0.96480000     -0.16200000      0.15640000     -1.14080000      1.10100000      1.42000000 #  hpan      c3h       o3e        c3h   
32        0.00000000      0.00000000      0.00000000      0.00000000      0.00000000      0.00000000      1.10100000      1.37680000 #  hpan       c2        oc         cp   
33        0.00000000      0.00000000      0.00000000      0.00000000      0.00000000      0.00000000      1.41700000      1.42000000 #  cp         cp        oc         c2   

MiddleBondTorsion Coeffs  # class2

1       -14.26100000     -0.53220000     -0.48640000      1.53000000 #  hpan       c2        c3       hpan   
2         0.00000000      0.00000000      0.00000000      1.53000000 #  cp         c2        c3       hpan   
3       -14.26100000     -0.53220000     -0.48640000      1.53000000 #  hpan       c2       c3h       hpan   
4       -16.79750000     -1.22960000     -0.27500000      1.53000000 #  hpan       c2       c3h        o3e   
5         0.00000000      0.00000000      0.00000000      1.50100000 #  c3         c2        cp         cp   
6         0.00000000      0.00000000      0.00000000      1.50100000 #  cp         c2        cp         cp   
7         0.00000000      0.00000000      0.00000000      1.42000000 #  c3h        c2        oc         cp   
8       -14.87900000     -3.65810000     -0.31380000      1.53000000 #  c3h       c3h        c2       hpan   
9       -17.25850000     -3.61570000     -0.83640000      1.53000000 #  o3e       c3h        c2         oc   
10      -16.79750000     -1.22960000     -0.27500000      1.53000000 #  hpan      c3h        c2         oc   
11      -21.88420000     -7.67640000     -0.68680000      1.53000000 #  c3h       c3h        c2         oc   
12      -14.26100000     -0.53220000     -0.48640000      1.53000000 #  hpan      c3h       c3h       hpan   
13      -14.87900000     -3.65810000     -0.31380000      1.53000000 #  c2        c3h       c3h       hpan   
14      -16.79750000     -1.22960000     -0.27500000      1.53000000 #  hpan      c3h       c3h        o3e   
15      -21.88420000     -7.67640000     -0.68680000      1.53000000 #  c2        c3h       c3h        o3e   
16       -5.92880000     -2.70070000     -0.31750000      1.42000000 #  c2        c3h       o3e        c3h   
17       -5.56790000      1.40830000      0.30100000      1.50100000 #  hpan       c2        cp         cp   
18       -5.56790000      1.40830000      0.30100000      1.50100000 #  hpan       c3        cp         cp   
19       27.59890000     -2.31200000      0.00000000      1.41700000 #  cp         cp        cp         cp   
20        0.00000000      9.17920000      0.00000000      1.41700000 #  c3         cp        cp         cp   
21        0.00000000      9.17920000      0.00000000      1.41700000 #  c2         cp        cp         cp   
22        0.00000000     -1.15210000      0.00000000      1.41700000 #  cp         cp        cp       hpan   
23        0.00000000      4.82280000      0.00000000      1.41700000 #  hpan       cp        cp       hpan   
24        0.00000000      3.94210000      0.00000000      1.41700000 #  c2         cp        cp       hpan   
25        0.00000000      0.00000000      0.00000000      1.41700000 #  c2         cp        cp         nn   
26        0.00000000     -0.56930000      0.00000000      1.41700000 #  cp         cp        cp         nn   
27        0.00000000      0.00000000      0.00000000      1.41700000 #  c3         cp        cp         nn   
28        0.00000000      4.82550000      0.00000000      1.41700000 #  cp         cp        cp         oc   
29        0.00000000      5.54320000      0.00000000      1.41700000 #  hpan       cp        cp         oc   
30        0.00000000      3.20850000      0.00000000      1.39120000 #  cp         cp        nn         hn   
31       -6.80070000     -4.65460000     -1.41010000      1.42000000 #  hpan      c3h       o3e        c3h   
32        0.00000000      0.00000000      0.00000000      1.42000000 #  hpan       c2        oc         cp   