nchmark/propanal_typed > all2lmp: v1.10 / 12 September 2023  Class: 2 > cell_builder version: v1.1 / 4 July 2023 > atom_typing v1.6 / 12 September 2023 w/PCFF-IFF atom-types > all2lmp: v1.10 / 12 September 2023  Class: 2

100 atoms
90 bonds
150 angles
150 dihedrals
90 impropers

5 atom types
6 bond types
9 angle types
6 dihedral types
6 improper types

-9.000000000 9.000000000 xlo xhi
-9.000000000 9.000000000 ylo yhi
-9.000000000 9.000000000 zlo zhi

Atom Type Labels

 1  c2
 2  c3
 3  c=
 4  hpan
 5  o_1

Bond Type Labels

 1  c2-c3
 2  c2-c=
 3  c2-hpan
 4  c3-hpan
 5  c=-hpan
 6  c=-o_1

Angle Type Labels

 1  c2-c3-hpan
 2  c2-c=-hpan
 3  c2-c=-o_1
 4  c3-c2-c=
 5  c3-c2-hpan
 6  c=-c2-hpan
 7  hpan-c2-hpan
 8  hpan-c3-hpan
 9  hpan-c=-o_1

Dihedral Type Labels

 1  hpan-c2-c3-hpan
 2  c=-c2-c3-hpan
 3  c3-c2-c=-hpan
 4  hpan-c2-c=-hpan
 5  o_1-c=-c2-c3
 6  o_1-c=-c2-hpan

Improper Type Labels

 1  c2-c=-hpan-o_1-nb==3
 2  c2-c3-hpan-hpan-nb!=3
 3  c3-c2-c=-hpan-nb!=3
 4  c3-c2-hpan-hpan-nb!=3
 5  c=-c2-hpan-hpan-nb!=3
 6  hpan-c3-hpan-hpan-nb!=3

Masses

1   12.01115000  #  c2   
2   12.01115000  #  c3   
3   12.01115000  #  c=   
4    1.00797000  #  hpan 
5   15.99940000  #  o_1  

Pair Coeffs  # lj/class2/coul/long

1         0.05400000      4.01000000 #  c2   
2         0.05400000      3.90000000 #  c3   
3         0.06400000      3.90000000 #  c=   
4         0.02000000      2.30000000 #  hpan 
5         0.26700000      3.30000000 #  o_1  

Bond Coeffs  # class2

1         1.53000000    299.67000000   -501.77000000    679.81000000 #  c2          c3   
2         1.50600000    312.35170000   -582.18610000    339.89710000 #  c2          c=   
3         1.10100000    345.00000000   -691.89000000    844.60000000 #  c2        hpan   
4         1.10100000    345.00000000   -691.89000000    844.60000000 #  c3        hpan   
5         1.08830000    365.76790000   -725.54040000    781.66210000 #  c=        hpan   
6         1.35500000    312.91160000      0.00000000      0.00000000 #  c=         o_1   

Angle Coeffs  # class2

1       110.77000000     41.45300000    -10.60400000      5.12900000 #  c2         c3       hpan   
2       117.27000000     30.09440000     -8.08260000     -8.67810000 #  c2         c=       hpan   
3       120.00000000     68.00000000      0.00000000      0.00000000 #  c2         c=        o_1   
4       111.76000000     45.70260000    -10.63960000     -9.91210000 #  c3         c2         c=   
5       110.77000000     41.45300000    -10.60400000      5.12900000 #  c3         c2       hpan   
6       110.06000000     41.27840000    -14.29630000      5.22290000 #  c=         c2       hpan   
7       107.66000000     39.64100000    -12.92100000     -2.43180000 #  hpan       c2       hpan   
8       107.66000000     39.64100000    -12.92100000     -2.43180000 #  hpan       c3       hpan   
9       120.00000000     68.00000000      0.00000000      0.00000000 #  hpan       c=        o_1   

Dihedral Coeffs  # class2

1        -0.14320000      0.00000000      0.06170000      0.00000000     -0.10830000      0.00000000 #  hpan       c2        c3       hpan   
2         0.00000000      0.00000000      0.00000000      0.00000000     -0.11660000      0.00000000 #  c=         c2        c3       hpan   
3        -0.24330000      0.00000000      0.00000000      0.00000000     -0.32810000      0.00000000 #  c3         c2        c=       hpan   
4        -0.11430000      0.00000000      0.00000000      0.00000000     -0.13490000      0.00000000 #  hpan       c2        c=       hpan   
5         0.00000000      0.00000000      0.00000000      0.00000000      0.21100000      0.00000000 #  o_1        c=        c2         c3   
6         0.00000000      0.00000000      0.00000000      0.00000000      0.21100000      0.00000000 #  o_1        c=        c2       hpan   

Improper Coeffs  # class2

1         2.05680000      0.00000000 #  c2         c=       hpan      o_1      nb==3   
2         0.00000000      0.00000000 #  c2         c3       hpan      hpan     nb!=3   
3         0.00000000      0.00000000 #  c3         c2        c=       hpan     nb!=3   
4         0.00000000      0.00000000 #  c3         c2       hpan      hpan     nb!=3   
5         0.00000000      0.00000000 #  c=         c2       hpan      hpan     nb!=3   
6         0.00000000      0.00000000 #  hpan       c3       hpan      hpan     nb!=3   

BondBond Coeffs  # class2

1         3.38720000      1.53000000      1.10100000 #  c2         c3       hpan   
2         3.43940000      1.50600000      1.08830000 #  c2         c=       hpan   
3         0.00000000      1.50600000      1.35500000 #  c2         c=        o_1   
4         7.78270000      1.53000000      1.50600000 #  c3         c2         c=   
5         3.38720000      1.53000000      1.10100000 #  c3         c2       hpan   
6         9.99220000      1.50600000      1.10100000 #  c=         c2       hpan   
7         5.33160000      1.10100000      1.10100000 #  hpan       c2       hpan   
8         5.33160000      1.10100000      1.10100000 #  hpan       c3       hpan   
9         0.00000000      1.08830000      1.35500000 #  hpan       c=        o_1   

BondAngle Coeffs  # class2

1        20.75400000     11.42100000      1.53000000      1.10100000 #  c2         c3       hpan   
2        17.64520000     15.34920000      1.50600000      1.08830000 #  c2         c=       hpan   
3         0.00000000      0.00000000      1.50600000      1.35500000 #  c2         c=        o_1   
4        15.98180000     18.97790000      1.53000000      1.50600000 #  c3         c2         c=   
5        20.75400000     11.42100000      1.53000000      1.10100000 #  c3         c2       hpan   
6        20.87670000     14.27410000      1.50600000      1.10100000 #  c=         c2       hpan   
7        18.10300000     18.10300000      1.10100000      1.10100000 #  hpan       c2       hpan   
8        18.10300000     18.10300000      1.10100000      1.10100000 #  hpan       c3       hpan   
9         0.00000000      0.00000000      1.08830000      1.35500000 #  hpan       c=        o_1   

AngleAngleTorsion Coeffs  # class2

1       -12.56400000    110.77000000    110.77000000 #  hpan       c2        c3       hpan   
2       -18.37170000    111.76000000    110.77000000 #  c=         c2        c3       hpan   
3       -16.89930000    111.76000000    117.27000000 #  c3         c2        c=       hpan   
4       -10.95120000    110.06000000    117.27000000 #  hpan       c2        c=       hpan   
5         0.00000000    120.00000000    111.76000000 #  o_1        c=        c2         c3   
6         0.00000000    120.00000000    110.06000000 #  o_1        c=        c2       hpan   

EndBondTorsion Coeffs  # class2

1         0.21300000      0.31200000      0.07770000      0.21300000      0.31200000      0.07770000      1.10100000      1.10100000 #  hpan       c2        c3       hpan   
2         0.98560000      0.00000000     -0.08640000      0.19540000      0.00000000     -0.08710000      1.50600000      1.10100000 #  c=         c2        c3       hpan   
3         0.18520000      0.00000000      0.59060000      1.17300000      0.00000000     -0.05820000      1.53000000      1.08830000 #  c3         c2        c=       hpan   
4         0.22120000      0.00000000      0.09150000      0.59340000      0.00000000      0.04240000      1.10100000      1.08830000 #  hpan       c2        c=       hpan   
5         0.00000000      0.00000000      0.00000000      0.00000000      0.00000000      0.00000000      1.35500000      1.53000000 #  o_1        c=        c2         c3   
6         0.00000000      0.00000000      0.00000000      0.00000000      0.00000000      0.00000000      1.35500000      1.10100000 #  o_1        c=        c2       hpan   

MiddleBondTorsion Coeffs  # class2

1       -14.26100000     -0.53220000     -0.48640000      1.53000000 #  hpan       c2        c3       hpan   
2        -5.01130000      0.00000000      0.58950000      1.53000000 #  c=         c2        c3       hpan   
3         1.28140000      0.00000000     -1.10220000      1.50600000 #  c3         c2        c=       hpan   
4         1.87300000      0.00000000     -0.37020000      1.50600000 #  hpan       c2        c=       hpan   
5         0.00000000      0.00000000      0.00000000      1.50600000 #  o_1        c=        c2         c3   
6         0.00000000      0.00000000      0.00000000      1.50600000 #  o_1        c=        c2       hpan   

BondBond13 Coeffs  # class2

1         0.00000000      1.10100000      1.10100000 #  hpan       c2        c3       hpan   
2         0.00000000      1.50600000      1.10100000 #  c=         c2        c3       hpan   
3         0.00000000      1.53000000      1.08830000 #  c3         c2        c=       hpan   
4         0.00000000      1.10100000      1.08830000 #  hpan       c2        c=       hpan   
5         0.00000000      1.35500000      1.53000000 #  o_1        c=        c2         c3   
6         0.00000000      1.35500000      1.10100000 #  o_1        c=        c2       hpan   

AngleTorsion Coeffs  # class2

1        -0.80850000      0.55690000     -0.24660000     -0.80850000      0.55690000     -0.24660000    110.77000000    110.77000000 #  hpan       c2        c3       hpan   
2         0.60830000      0.00000000      0.00000000     -0.87140000      0.00000000      0.00000000    111.76000000    110.77000000 #  c=         c2        c3       hpan   
3         0.53110000      0.00000000      0.00000000     -0.91720000      0.00000000      0.00000000    111.76000000    117.27000000 #  c3         c2        c=       hpan   
4         1.90610000      0.00000000      0.00000000     -0.06770000      0.00000000      0.00000000    110.06000000    117.27000000 #  hpan       c2        c=       hpan   
5         0.00000000      0.00000000      0.00000000      0.00000000      0.00000000      0.00000000    120.00000000    111.76000000 #  o_1        c=        c2         c3   
6         0.00000000      0.00000000      0.00000000      0.00000000      0.00000000      0.00000000    120.00000000    110.06000000 #  o_1        c=        c2       hpan   

AngleAngle Coeffs  # class2

1         0.00000000      0.00000000      0.00000000    117.27000000    120.00000000    120.00000000 #  c2         c=       hpan      o_1      nb==3   
2         0.27380000     -0.48250000      0.27380000    110.77000000    110.77000000    107.66000000 #  c2         c3       hpan      hpan     nb!=3   
3         0.97470000     -1.46390000      4.19410000    111.76000000    110.77000000    110.06000000 #  c3         c2        c=       hpan     nb!=3   
4         0.27380000     -0.48250000      0.27380000    110.77000000    110.77000000    107.66000000 #  c3         c2       hpan      hpan     nb!=3   
5        -0.11410000     -8.24640000     -0.11410000    110.06000000    110.06000000    107.66000000 #  c=         c2       hpan      hpan     nb!=3   
6        -0.31570000     -0.31570000     -0.31570000    107.66000000    107.66000000    107.66000000 #  hpan       c3       hpan      hpan     nb!=3   

Atoms # full

 1  1  c3    -0.159000   -0.087651886     4.992094944    -0.560299333      0    0    0 #  c3/C
 2  1  c2    -0.106000    0.564496530     6.256759828    -0.017623451      0    0    0 #  c2/C
 3  1  c=     0.231500   -0.455882868     7.059700808     0.751186978      0    0    0 #  c=/C
 4  1  o_1   -0.358300   -0.138579767     8.105587277     1.265653114      0    0    0 #  o_1/O
 5  1  hpan   0.053000    0.664958450     4.399854607    -1.127362350      0    0    0 #  hpan/H
 6  1  hpan   0.053000   -0.476618861     4.383209192     0.286356970      0    0    0 #  hpan/H
 7  1  hpan   0.053000   -0.927637444     5.268628632    -1.236174723      0    0    0 #  hpan/H
 8  1  hpan   0.053000    0.953463505     6.865645580    -0.864279753      0    0    0 #  hpan/H
 9  1  hpan   0.053000    1.404482088     5.980226140     0.658251939      0    0    0 #  hpan/H
10  1  hpan   0.126800   -1.501029747     6.688292993     0.844290607      0    0    0 #  hpan/H
11  2  c3    -0.159000   -0.896707636     0.691149029     6.236049217      0    0    0 #  c3/C
12  2  c2    -0.106000    0.247524705     0.081682989     5.437015153      0    0    0 #  c2/C
13  2  c=     0.231500    0.923490263    -0.987208708     6.260118375      0    0    0 #  c=/C
14  2  o_1   -0.358300    1.861959665    -1.596795065     5.805239463      0    0    0 #  o_1/O
15  2  hpan   0.053000   -1.395292672     1.479546827     5.628946857      0    0    0 #  hpan/H
16  2  hpan   0.053000   -1.634599836    -0.102276772     6.490714996      0    0    0 #  hpan/H
17  2  hpan   0.053000   -0.496860783     1.141387492     7.172137878      0    0    0 #  hpan/H
18  2  hpan   0.053000    0.985416905     0.875108790     5.182349374      0    0    0 #  hpan/H
19  2  hpan   0.053000   -0.152322149    -0.368555474     4.500926492      0    0    0 #  hpan/H
20  2  hpan   0.126800    0.557391538    -1.214039108     7.286502194      0    0    0 #  hpan/H
21  3  c3    -0.159000    5.501359327     1.013862182     6.246843580      0    0    0 #  c3/C
22  3  c2    -0.106000    6.620136279     0.006609993     6.016728176      0    0    0 #  c2/C
23  3  c=     0.231500    6.025815743    -1.333720128     5.659998477      0    0    0 #  c=/C
24  3  o_1   -0.358300    6.749114026    -2.275201038     5.437089392      0    0    0 #  o_1/O
25  3  hpan   0.053000    5.939714304     2.002469808     6.509961947      0    0    0 #  hpan/H
26  3  hpan   0.053000    4.895113070     1.112724723     5.318643314      0    0    0 #  hpan/H
27  3  hpan   0.053000    4.851718190     0.662814326     7.079661662      0    0    0 #  hpan/H
28  3  hpan   0.053000    7.226382536    -0.092252548     6.944928442      0    0    0 #  hpan/H
29  3  hpan   0.053000    7.269777416     0.357657849     5.183910095      0    0    0 #  hpan/H
30  3  hpan   0.126800    4.920869111    -1.454965167     5.602234916      0    0    0 #  hpan/H
31  4  c3    -0.159000    5.541312561    -6.888948574     5.419597499      0    0    0 #  c3/C
32  4  c2    -0.106000    5.953893921    -6.043482508     6.617151545      0    0    0 #  c2/C
33  4  c=     0.231500    6.646978829    -4.792506757     6.135850401      0    0    0 #  c=/C
34  4  o_1   -0.358300    7.054919595    -3.982755480     6.934049857      0    0    0 #  o_1/O
35  4  hpan   0.053000    5.030103895    -7.811649317     5.774591076      0    0    0 #  hpan/H
36  4  hpan   0.053000    4.846346082    -6.304923079     4.775547908      0    0    0 #  hpan/H
37  4  hpan   0.053000    6.445432832    -7.168086154     4.833506289      0    0    0 #  hpan/H
38  4  hpan   0.053000    6.648860399    -6.627508004     7.261201135      0    0    0 #  hpan/H
39  4  hpan   0.053000    5.049773650    -5.764344928     7.203242755      0    0    0 #  hpan/H
40  4  hpan   0.126800    6.782378236    -4.615795197     5.045261535      0    0    0 #  hpan/H
41  5  c3    -0.159000   -6.894551102     6.210537862     5.297901052      0    0    0 #  c3/C
42  5  c2    -0.106000   -6.127728695     6.055953256     6.604522243      0    0    0 #  c2/C
43  5  c=     0.231500   -4.700015082     5.667868947     6.307904277      0    0    0 #  c=/C
44  5  o_1   -0.358300   -3.920217732     5.495148457     7.214170736      0    0    0 #  o_1/O
45  5  hpan   0.053000   -7.947610121     6.496782479     5.516675189      0    0    0 #  hpan/H
46  5  hpan   0.053000   -6.416343589     7.002558763     4.679124414      0    0    0 #  hpan/H
47  5  hpan   0.053000   -6.880171572     5.245780789     4.743021625      0    0    0 #  hpan/H
48  5  hpan   0.053000   -6.605936208     5.263932356     7.223298881      0    0    0 #  hpan/H
49  5  hpan   0.053000   -6.142108225     7.020710329     7.159401670      0    0    0 #  hpan/H
50  5  hpan   0.126800   -4.365317676     5.540726762     5.253979914      0    0    0 #  hpan/H
51  6  c3    -0.159000    0.952385506    -5.592138066    -5.486092140      0    0    0 #  c3/C
52  6  c2    -0.106000   -0.044934930    -5.865634032    -6.604002621      0    0    0 #  c2/C
53  6  c=     0.231500   -1.201150504    -6.669669338    -6.062107260      0    0    0 #  c=/C
54  6  o_1   -0.358300   -2.106895689    -6.993427374    -6.792888735      0    0    0 #  o_1/O
55  6  hpan   0.053000    1.805193550    -4.999095031    -5.885779267      0    0    0 #  hpan/H
56  6  hpan   0.053000    0.450989231    -5.019098376    -4.674247728      0    0    0 #  hpan/H
57  6  hpan   0.053000    1.329747713    -6.557813979    -5.081219377      0    0    0 #  hpan/H
58  6  hpan   0.053000    0.456461345    -6.438673721    -7.415847034      0    0    0 #  hpan/H
59  6  hpan   0.053000   -0.422297137    -4.899958118    -7.008875385      0    0    0 #  hpan/H
60  6  hpan   0.126800   -1.219499084    -6.964491965    -4.988940452      0    0    0 #  hpan/H
61  7  c3    -0.159000    0.425399599    -6.267920619     4.958489308      0    0    0 #  c3/C
62  7  c2    -0.106000   -0.295253774    -5.454970507     6.025701926      0    0    0 #  c2/C
63  7  c=     0.231500   -0.258351838    -6.200252269     7.337247256      0    0    0 #  c=/C
64  7  o_1   -0.358300   -0.777804107    -5.723186692     8.317967882      0    0    0 #  o_1/O
65  7  hpan   0.053000    0.398184644    -5.718218014     3.991112550      0    0    0 #  hpan/H
66  7  hpan   0.053000    1.483657949    -6.426169767     5.264937561      0    0    0 #  hpan/H
67  7  hpan   0.053000   -0.078551691    -7.253166641     4.839419864      0    0    0 #  hpan/H
68  7  hpan   0.053000   -1.353512124    -5.296721359     5.719253674      0    0    0 #  hpan/H
69  7  hpan   0.053000    0.208697517    -4.469724485     6.144771370      0    0    0 #  hpan/H
70  7  hpan   0.126800    0.247533825    -7.189669648     7.401098608      0    0    0 #  hpan/H
71  8  c3    -0.159000   -6.977909180     6.541775752    -6.296080172      0    0    0 #  c3/C
72  8  c2    -0.106000   -6.010285096     5.737922688    -5.437770307      0    0    0 #  c2/C
73  8  c=     0.231500   -4.709623652     5.555788307    -6.180780862      0    0    0 #  c=/C
74  8  o_1   -0.358300   -3.803161169     4.941802167    -5.670308574      0    0    0 #  o_1/O
75  8  hpan   0.053000   -7.937257735     6.676118371    -5.748052972      0    0    0 #  hpan/H
76  8  hpan   0.053000   -6.535620569     7.538671896    -6.518437819      0    0    0 #  hpan/H
77  8  hpan   0.053000   -7.168007613     5.998456276    -7.248718977      0    0    0 #  hpan/H
78  8  hpan   0.053000   -6.452573707     4.741026544    -5.215412660      0    0    0 #  hpan/H
79  8  hpan   0.053000   -5.820186663     6.281242164    -4.485131502      0    0    0 #  hpan/H
80  8  hpan   0.126800   -4.585374617     5.987195834    -7.199306155      0    0    0 #  hpan/H
81  9  c3    -0.159000    0.538125525    -0.436192210    -6.926092907      0    0    0 #  c3/C
82  9  c2    -0.106000    0.269730342    -0.134460702    -5.457728490      0    0    0 #  c2/C
83  9  c=     0.231500   -0.977000972     0.706846437    -5.335986383      0    0    0 #  c=/C
84  9  o_1   -0.358300   -1.365564493     1.056949765    -4.247096481      0    0    0 #  o_1/O
85  9  hpan   0.053000    1.457693053    -1.056726397    -7.015894272      0    0    0 #  hpan/H
86  9  hpan   0.053000   -0.326462918    -0.991112429    -7.354362022      0    0    0 #  hpan/H
87  9  hpan   0.053000    0.679184963     0.518223400    -7.481112941      0    0    0 #  hpan/H
88  9  hpan   0.053000    1.134318785     0.420459517    -5.029459375      0    0    0 #  hpan/H
89  9  hpan   0.053000    0.128670904    -1.088876312    -4.902708456      0    0    0 #  hpan/H
90  9  hpan   0.126800   -1.538695189     1.004888929    -6.249558673      0    0    0 #  hpan/H
91  10 c3    -0.159000    5.222104585    -6.833470314    -5.805843472      0    0    0 #  c3/C
92  10 c2    -0.106000    6.014148656    -5.554633131    -5.568328023      0    0    0 #  c2/C
93  10 c=     0.231500    7.003881083    -5.359265477    -6.690477307      0    0    0 #  c=/C
94  10 o_1   -0.358300    7.734265486    -4.397094273    -6.691083492      0    0    0 #  o_1/O
95  10 hpan   0.053000    4.492092403    -6.977575689    -4.978167657      0    0    0 #  hpan/H
96  10 hpan   0.053000    4.675691567    -6.756731603    -6.772491311      0    0    0 #  hpan/H
97  10 hpan   0.053000    5.919214349    -7.700469159    -5.840558580      0    0    0 #  hpan/H
98  10 hpan   0.053000    6.560561674    -5.631371842    -4.601680184      0    0    0 #  hpan/H
99  10 hpan   0.053000    5.317038892    -4.687634285    -5.533612916      0    0    0 #  hpan/H
100 10 hpan   0.126800    7.061001305    -6.101754227    -7.517757057      0    0    0 #  hpan/H

Bonds

  1   c2-c3        2     1  
  2   c3-hpan      1     5  
  3   c3-hpan      1     6  
  4   c3-hpan      1     7  
  5   c2-c=        2     3  
  6   c2-hpan      2     8  
  7   c2-hpan      2     9  
  8   c=-o_1       3     4  
  9   c=-hpan      3    10  
 10   c2-c3       12    11  
 11   c3-hpan     11    15  
 12   c3-hpan     11    16  
 13   c3-hpan     11    17  
 14   c2-c=       12    13  
 15   c2-hpan     12    18  
 16   c2-hpan     12    19  
 17   c=-o_1      13    14  
 18   c=-hpan     13    20  
 19   c2-c3       22    21  
 20   c3-hpan     21    25  
 21   c3-hpan     21    26  
 22   c3-hpan     21    27  
 23   c2-c=       22    23  
 24   c2-hpan     22    28  
 25   c2-hpan     22    29  
 26   c=-o_1      23    24  
 27   c=-hpan     23    30  
 28   c2-c3       32    31  
 29   c3-hpan     31    35  
 30   c3-hpan     31    36  
 31   c3-hpan     31    37  
 32   c2-c=       32    33  
 33   c2-hpan     32    38  
 34   c2-hpan     32    39  
 35   c=-o_1      33    34  
 36   c=-hpan     33    40  
 37   c2-c3       42    41  
 38   c3-hpan     41    45  
 39   c3-hpan     41    46  
 40   c3-hpan     41    47  
 41   c2-c=       42    43  
 42   c2-hpan     42    48  
 43   c2-hpan     42    49  
 44   c=-o_1      43    44  
 45   c=-hpan     43    50  
 46   c2-c3       52    51  
 47   c3-hpan     51    55  
 48   c3-hpan     51    56  
 49   c3-hpan     51    57  
 50   c2-c=       52    53  
 51   c2-hpan     52    58  
 52   c2-hpan     52    59  
 53   c=-o_1      53    54  
 54   c=-hpan     53    60  
 55   c2-c3       62    61  
 56   c3-hpan     61    65  
 57   c3-hpan     61    66  
 58   c3-hpan     61    67  
 59   c2-c=       62    63  
 60   c2-hpan     62    68  
 61   c2-hpan     62    69  
 62   c=-o_1      63    64  
 63   c=-hpan     63    70  
 64   c2-c3       72    71  
 65   c3-hpan     71    75  
 66   c3-hpan     71    76  
 67   c3-hpan     71    77  
 68   c2-c=       72    73  
 69   c2-hpan     72    78  
 70   c2-hpan     72    79  
 71   c=-o_1      73    74  
 72   c=-hpan     73    80  
 73   c2-c3       82    81  
 74   c3-hpan     81    85  
 75   c3-hpan     81    86  
 76   c3-hpan     81    87  
 77   c2-c=       82    83  
 78   c2-hpan     82    88  
 79   c2-hpan     82    89  
 80   c=-o_1      83    84  
 81   c=-hpan     83    90  
 82   c2-c3       92    91  
 83   c3-hpan     91    95  
 84   c3-hpan     91    96  
 85   c3-hpan     91    97  
 86   c2-c=       92    93  
 87   c2-hpan     92    98  
 88   c2-hpan     92    99  
 89   c=-o_1      93    94  
 90   c=-hpan     93    100 

Angles

  1   hpan-c3-hpan      5     1     6  
  2   c2-c3-hpan        2     1     6  
  3   hpan-c3-hpan      6     1     7  
  4   hpan-c3-hpan      5     1     7  
  5   c2-c3-hpan        2     1     5  
  6   c2-c3-hpan        2     1     7  
  7   c3-c2-hpan        1     2     8  
  8   c3-c2-c=          1     2     3  
  9   c=-c2-hpan        3     2     9  
 10   c3-c2-hpan        1     2     9  
 11   c=-c2-hpan        3     2     8  
 12   hpan-c2-hpan      8     2     9  
 13   hpan-c=-o_1      10     3     4  
 14   c2-c=-hpan        2     3    10  
 15   c2-c=-o_1         2     3     4  
 16   c2-c3-hpan       12    11    17  
 17   hpan-c3-hpan     15    11    16  
 18   hpan-c3-hpan     15    11    17  
 19   c2-c3-hpan       12    11    16  
 20   hpan-c3-hpan     16    11    17  
 21   c2-c3-hpan       12    11    15  
 22   c3-c2-c=         11    12    13  
 23   hpan-c2-hpan     18    12    19  
 24   c=-c2-hpan       13    12    18  
 25   c3-c2-hpan       11    12    19  
 26   c3-c2-hpan       11    12    18  
 27   c=-c2-hpan       13    12    19  
 28   hpan-c=-o_1      20    13    14  
 29   c2-c=-o_1        12    13    14  
 30   c2-c=-hpan       12    13    20  
 31   c2-c3-hpan       22    21    26  
 32   hpan-c3-hpan     25    21    27  
 33   hpan-c3-hpan     26    21    27  
 34   hpan-c3-hpan     25    21    26  
 35   c2-c3-hpan       22    21    25  
 36   c2-c3-hpan       22    21    27  
 37   c=-c2-hpan       23    22    29  
 38   c3-c2-hpan       21    22    28  
 39   c3-c2-c=         21    22    23  
 40   hpan-c2-hpan     28    22    29  
 41   c3-c2-hpan       21    22    29  
 42   c=-c2-hpan       23    22    28  
 43   hpan-c=-o_1      30    23    24  
 44   c2-c=-hpan       22    23    30  
 45   c2-c=-o_1        22    23    24  
 46   c2-c3-hpan       32    31    35  
 47   c2-c3-hpan       32    31    37  
 48   hpan-c3-hpan     35    31    37  
 49   hpan-c3-hpan     36    31    37  
 50   c2-c3-hpan       32    31    36  
 51   hpan-c3-hpan     35    31    36  
 52   hpan-c2-hpan     38    32    39  
 53   c3-c2-hpan       31    32    39  
 54   c=-c2-hpan       33    32    39  
 55   c=-c2-hpan       33    32    38  
 56   c3-c2-hpan       31    32    38  
 57   c3-c2-c=         31    32    33  
 58   c2-c=-o_1        32    33    34  
 59   hpan-c=-o_1      40    33    34  
 60   c2-c=-hpan       32    33    40  
 61   hpan-c3-hpan     45    41    46  
 62   c2-c3-hpan       42    41    46  
 63   hpan-c3-hpan     46    41    47  
 64   c2-c3-hpan       42    41    45  
 65   hpan-c3-hpan     45    41    47  
 66   c2-c3-hpan       42    41    47  
 67   c=-c2-hpan       43    42    49  
 68   c3-c2-hpan       41    42    48  
 69   c3-c2-c=         41    42    43  
 70   c=-c2-hpan       43    42    48  
 71   c3-c2-hpan       41    42    49  
 72   hpan-c2-hpan     48    42    49  
 73   hpan-c=-o_1      50    43    44  
 74   c2-c=-o_1        42    43    44  
 75   c2-c=-hpan       42    43    50  
 76   c2-c3-hpan       52    51    56  
 77   c2-c3-hpan       52    51    55  
 78   hpan-c3-hpan     55    51    57  
 79   c2-c3-hpan       52    51    57  
 80   hpan-c3-hpan     55    51    56  
 81   hpan-c3-hpan     56    51    57  
 82   c3-c2-c=         51    52    53  
 83   c=-c2-hpan       53    52    59  
 84   c3-c2-hpan       51    52    59  
 85   c=-c2-hpan       53    52    58  
 86   c3-c2-hpan       51    52    58  
 87   hpan-c2-hpan     58    52    59  
 88   hpan-c=-o_1      60    53    54  
 89   c2-c=-hpan       52    53    60  
 90   c2-c=-o_1        52    53    54  
 91   hpan-c3-hpan     65    61    66  
 92   c2-c3-hpan       62    61    66  
 93   hpan-c3-hpan     66    61    67  
 94   hpan-c3-hpan     65    61    67  
 95   c2-c3-hpan       62    61    65  
 96   c2-c3-hpan       62    61    67  
 97   hpan-c2-hpan     68    62    69  
 98   c=-c2-hpan       63    62    69  
 99   c3-c2-hpan       61    62    69  
 100  c=-c2-hpan       63    62    68  
 101  c3-c2-hpan       61    62    68  
 102  c3-c2-c=         61    62    63  
 103  hpan-c=-o_1      70    63    64  
 104  c2-c=-hpan       62    63    70  
 105  c2-c=-o_1        62    63    64  
 106  hpan-c3-hpan     75    71    77  
 107  c2-c3-hpan       72    71    75  
 108  c2-c3-hpan       72    71    77  
 109  hpan-c3-hpan     75    71    76  
 110  hpan-c3-hpan     76    71    77  
 111  c2-c3-hpan       72    71    76  
 112  c3-c2-hpan       71    72    78  
 113  hpan-c2-hpan     78    72    79  
 114  c3-c2-c=         71    72    73  
 115  c=-c2-hpan       73    72    78  
 116  c3-c2-hpan       71    72    79  
 117  c=-c2-hpan       73    72    79  
 118  hpan-c=-o_1      80    73    74  
 119  c2-c=-hpan       72    73    80  
 120  c2-c=-o_1        72    73    74  
 121  c2-c3-hpan       82    81    86  
 122  hpan-c3-hpan     85    81    87  
 123  hpan-c3-hpan     86    81    87  
 124  c2-c3-hpan       82    81    85  
 125  c2-c3-hpan       82    81    87  
 126  hpan-c3-hpan     85    81    86  
 127  c=-c2-hpan       83    82    89  
 128  c3-c2-hpan       81    82    89  
 129  hpan-c2-hpan     88    82    89  
 130  c=-c2-hpan       83    82    88  
 131  c3-c2-hpan       81    82    88  
 132  c3-c2-c=         81    82    83  
 133  c2-c=-o_1        82    83    84  
 134  c2-c=-hpan       82    83    90  
 135  hpan-c=-o_1      90    83    84  
 136  hpan-c3-hpan     95    91    97  
 137  c2-c3-hpan       92    91    96  
 138  hpan-c3-hpan     96    91    97  
 139  hpan-c3-hpan     95    91    96  
 140  c2-c3-hpan       92    91    95  
 141  c2-c3-hpan       92    91    97  
 142  c3-c2-hpan       91    92    98  
 143  c3-c2-c=         91    92    93  
 144  c=-c2-hpan       93    92    98  
 145  hpan-c2-hpan     98    92    99  
 146  c3-c2-hpan       91    92    99  
 147  c=-c2-hpan       93    92    99  
 148  hpan-c=-o_1      100   93    94  
 149  c2-c=-o_1        92    93    94  
 150  c2-c=-hpan       92    93    100 

Dihedrals

  1   hpan-c2-c3-hpan        8     2     1     6  
  2   hpan-c2-c3-hpan        9     2     1     5  
  3   hpan-c2-c3-hpan        9     2     1     7  
  4   hpan-c2-c3-hpan        9     2     1     6  
  5   hpan-c2-c3-hpan        8     2     1     7  
  6   hpan-c2-c3-hpan        8     2     1     5  
  7   c=-c2-c3-hpan          3     2     1     5  
  8   o_1-c=-c2-c3           4     3     2     1  
  9   hpan-c2-c=-hpan        8     2     3    10  
 10   c=-c2-c3-hpan          3     2     1     7  
 11   hpan-c2-c=-hpan        9     2     3    10  
 12   c=-c2-c3-hpan          3     2     1     6  