benchmark/propanal_typed > all2lmp: v1.10 / 12 September 2023  Class: 2 > cell_builder version: v1.1 / 4 July 2023 > atom_typing v1.6 / 12 September 2023 w/PCFF-IFF atom-types > all2lmp: v1.11 / 11 October 2023  Class: 2

1000 atoms
900 bonds
1500 angles
1500 dihedrals
900 impropers

5 atom types
6 bond types
9 angle types
6 dihedral types
6 improper types

-15.000000000 15.000000000 xlo xhi
-15.000000000 15.000000000 ylo yhi
-15.000000000 15.000000000 zlo zhi

Masses

1   12.01115000  #  c2   
2   12.01115000  #  c3   
3   12.01115000  #  c=   
4    1.00797000  #  hpan 
5   15.99940000  #  o_1  

Pair Coeffs  # lj/class2/coul/long

1         0.05400000      4.01000000 #  c2   
2         0.05400000      3.90000000 #  c3   
3         0.06400000      3.90000000 #  c=   
4         0.02000000      2.30000000 #  hpan 
5         0.26700000      3.30000000 #  o_1  

Bond Coeffs  # class2

1         1.53000000    299.67000000   -501.77000000    679.81000000 #  c2          c3   
2         1.50600000    312.35170000   -582.18610000    339.89710000 #  c2          c=   
3         1.10100000    345.00000000   -691.89000000    844.60000000 #  c2        hpan   
4         1.10100000    345.00000000   -691.89000000    844.60000000 #  c3        hpan   
5         1.08830000    365.76790000   -725.54040000    781.66210000 #  c=        hpan   
6         1.35500000    312.91160000      0.00000000      0.00000000 #  c=         o_1   

Angle Coeffs  # class2

1       110.77000000     41.45300000    -10.60400000      5.12900000 #  c2         c3       hpan   
2       117.27000000     30.09440000     -8.08260000     -8.67810000 #  c2         c=       hpan   
3       120.00000000     68.00000000      0.00000000      0.00000000 #  c2         c=        o_1   
4       111.76000000     45.70260000    -10.63960000     -9.91210000 #  c3         c2         c=   
5       110.77000000     41.45300000    -10.60400000      5.12900000 #  c3         c2       hpan   
6       110.06000000     41.27840000    -14.29630000      5.22290000 #  c=         c2       hpan   
7       107.66000000     39.64100000    -12.92100000     -2.43180000 #  hpan       c2       hpan   
8       107.66000000     39.64100000    -12.92100000     -2.43180000 #  hpan       c3       hpan   
9       120.00000000     68.00000000      0.00000000      0.00000000 #  hpan       c=        o_1   

Dihedral Coeffs  # class2

1         0.00000000      0.00000000      0.00000000      0.00000000     -0.11660000      0.00000000 #  c=         c2        c3       hpan   
2        -0.14320000      0.00000000      0.06170000      0.00000000     -0.10830000      0.00000000 #  hpan       c2        c3       hpan   
3        -0.24330000      0.00000000      0.00000000      0.00000000     -0.32810000      0.00000000 #  c3         c2        c=       hpan   
4        -0.11430000      0.00000000      0.00000000      0.00000000     -0.13490000      0.00000000 #  hpan       c2        c=       hpan   
5         0.00000000      0.00000000      0.00000000      0.00000000      0.21100000      0.00000000 #  o_1        c=        c2       hpan   
6         0.00000000      0.00000000      0.00000000      0.00000000      0.21100000      0.00000000 #  o_1        c=        c2         c3   

Improper Coeffs  # class2

1         2.05680000      0.00000000 #  c2         c=       hpan      o_1      nb==3   
2         0.00000000      0.00000000 #  c2         c3       hpan      hpan     nb!=3   
3         0.00000000      0.00000000 #  c3         c2        c=       hpan     nb!=3   
4         0.00000000      0.00000000 #  c3         c2       hpan      hpan     nb!=3   
5         0.00000000      0.00000000 #  c=         c2       hpan      hpan     nb!=3   
6         0.00000000      0.00000000 #  hpan       c3       hpan      hpan     nb!=3   

BondBond Coeffs  # class2

1         3.38720000      1.53000000      1.10100000 #  c2         c3       hpan   
2         3.43940000      1.50600000      1.08830000 #  c2         c=       hpan   
3         0.00000000      1.50600000      1.35500000 #  c2         c=        o_1   
4         7.78270000      1.53000000      1.50600000 #  c3         c2         c=   
5         3.38720000      1.53000000      1.10100000 #  c3         c2       hpan   
6         9.99220000      1.50600000      1.10100000 #  c=         c2       hpan   
7         5.33160000      1.10100000      1.10100000 #  hpan       c2       hpan   
8         5.33160000      1.10100000      1.10100000 #  hpan       c3       hpan   
9         0.00000000      1.08830000      1.35500000 #  hpan       c=        o_1   

BondAngle Coeffs  # class2

1        20.75400000     11.42100000      1.53000000      1.10100000 #  c2         c3       hpan   
2        17.64520000     15.34920000      1.50600000      1.08830000 #  c2         c=       hpan   
3         0.00000000      0.00000000      1.50600000      1.35500000 #  c2         c=        o_1   
4        15.98180000     18.97790000      1.53000000      1.50600000 #  c3         c2         c=   
5        20.75400000     11.42100000      1.53000000      1.10100000 #  c3         c2       hpan   
6        20.87670000     14.27410000      1.50600000      1.10100000 #  c=         c2       hpan   
7        18.10300000     18.10300000      1.10100000      1.10100000 #  hpan       c2       hpan   
8        18.10300000     18.10300000      1.10100000      1.10100000 #  hpan       c3       hpan   
9         0.00000000      0.00000000      1.08830000      1.35500000 #  hpan       c=        o_1   

AngleAngleTorsion Coeffs  # class2

1       -18.37170000    111.76000000    110.77000000 #  c=         c2        c3       hpan   
2       -12.56400000    110.77000000    110.77000000 #  hpan       c2        c3       hpan   
3       -16.89930000    111.76000000    117.27000000 #  c3         c2        c=       hpan   
4       -10.95120000    110.06000000    117.27000000 #  hpan       c2        c=       hpan   
5         0.00000000    120.00000000    110.06000000 #  o_1        c=        c2       hpan   
6         0.00000000    120.00000000    111.76000000 #  o_1        c=        c2         c3   

EndBondTorsion Coeffs  # class2

1         0.98560000      0.00000000     -0.08640000      0.19540000      0.00000000     -0.08710000      1.50600000      1.10100000 #  c=         c2        c3       hpan   
2         0.21300000      0.31200000      0.07770000      0.21300000      0.31200000      0.07770000      1.10100000      1.10100000 #  hpan       c2        c3       hpan   
3         0.18520000      0.00000000      0.59060000      1.17300000      0.00000000     -0.05820000      1.53000000      1.08830000 #  c3         c2        c=       hpan   
4         0.22120000      0.00000000      0.09150000      0.59340000      0.00000000      0.04240000      1.10100000      1.08830000 #  hpan       c2        c=       hpan   
5         0.00000000      0.00000000      0.00000000      0.00000000      0.00000000      0.00000000      1.35500000      1.10100000 #  o_1        c=        c2       hpan   
6         0.00000000      0.00000000      0.00000000      0.00000000      0.00000000      0.00000000      1.35500000      1.53000000 #  o_1        c=        c2         c3   

MiddleBondTorsion Coeffs  # class2

1        -5.01130000      0.00000000      0.58950000      1.53000000 #  c=         c2        c3       hpan   
2       -14.26100000     -0.53220000     -0.48640000      1.53000000 #  hpan       c2        c3       hpan   
3         1.28140000      0.00000000     -1.10220000      1.50600000 #  c3         c2        c=       hpan   
4         1.87300000      0.00000000     -0.37020000      1.50600000 #  hpan       c2        c=       hpan   
5         0.00000000      0.00000000      0.00000000      1.50600000 #  o_1        c=        c2       hpan   
6         0.00000000      0.00000000      0.00000000      1.50600000 #  o_1        c=        c2         c3   

BondBond13 Coeffs  # class2

1         0.00000000      1.50600000      1.10100000 #  c=         c2        c3       hpan   
2         0.00000000      1.10100000      1.10100000 #  hpan       c2        c3       hpan   
3         0.00000000      1.53000000      1.08830000 #  c3         c2        c=       hpan   
4         0.00000000      1.10100000      1.08830000 #  hpan       c2        c=       hpan   
5         0.00000000      1.35500000      1.10100000 #  o_1        c=        c2       hpan   
6         0.00000000      1.35500000      1.53000000 #  o_1        c=        c2         c3   

AngleTorsion Coeffs  # class2

1         0.60830000      0.00000000      0.00000000     -0.87140000      0.00000000      0.00000000    111.76000000    110.77000000 #  c=         c2        c3       hpan   
2        -0.80850000      0.55690000     -0.24660000     -0.80850000      0.55690000     -0.24660000    110.77000000    110.77000000 #  hpan       c2        c3       hpan   
3         0.53110000      0.00000000      0.00000000     -0.91720000      0.00000000      0.00000000    111.76000000    117.27000000 #  c3         c2        c=       hpan   
4         1.90610000      0.00000000      0.00000000     -0.06770000      0.00000000      0.00000000    110.06000000    117.27000000 #  hpan       c2        c=       hpan   
5         0.00000000      0.00000000      0.00000000      0.00000000      0.00000000      0.00000000    120.00000000    110.06000000 #  o_1        c=        c2       hpan   
6         0.00000000      0.00000000      0.00000000      0.00000000      0.00000000      0.00000000    120.00000000    111.76000000 #  o_1        c=        c2         c3   

AngleAngle Coeffs  # class2

1         0.00000000      0.00000000      0.00000000    117.27000000    120.00000000    120.00000000 #  c2         c=       hpan      o_1      nb==3   
2         0.27380000     -0.48250000      0.27380000    110.77000000    110.77000000    107.66000000 #  c2         c3       hpan      hpan     nb!=3   
3         0.97470000     -1.46390000      4.19410000    111.76000000    110.77000000    110.06000000 #  c3         c2        c=       hpan     nb!=3   
4         0.27380000     -0.48250000      0.27380000    110.77000000    110.77000000    107.66000000 #  c3         c2       hpan      hpan     nb!=3   
5        -0.11410000     -8.24640000     -0.11410000    110.06000000    110.06000000    107.66000000 #  c=         c2       hpan      hpan     nb!=3   
6        -0.31570000     -0.31570000     -0.31570000    107.66000000    107.66000000    107.66000000 #  hpan       c3       hpan      hpan     nb!=3   

Atoms # full

 1  1  2   -0.159000    6.164257043    -7.112781622    11.731248286      0    0    0 #  c3/C
 2  1  1   -0.106000    6.061028819    -5.868527302    12.603227106      0    0    0 #  c2/C
 3  1  3    0.231500    5.723315122    -4.676382872    11.742007664      0    0    0 #  c=/C
 4  1  5   -0.358300    5.595816342    -3.585127499    12.244144040      0    0    0 #  o_1/O
 5  1  4    0.053000    6.413348982    -7.992091246    12.366464148      0    0    0 #  hpan/H
 6  1  4    0.053000    5.191292471    -7.288799474    11.220149746      0    0    0 #  hpan/H
 7  1  4    0.053000    6.963128735    -6.967027141    10.970055925      0    0    0 #  hpan/H
 8  1  4    0.053000    7.033993391    -5.692509450    13.114325646      0    0    0 #  hpan/H
 9  1  4    0.053000    5.262157127    -6.014281783    13.364419467      0    0    0 #  hpan/H
10  1  4    0.126800    5.591661966    -4.802471610    10.643957972      0    0    0 #  hpan/H
11  2  2   -0.159000   11.461595120    -0.170039860    -7.009305419      0    0    0 #  c3/C
12  2  1   -0.106000   12.408089401    -0.441744239    -5.847626787      0    0    0 #  c2/C
13  2  3    0.231500   12.292206202     0.669092478    -4.832949161      0    0    0 #  c=/C
14  2  5   -0.358300   12.964011170     0.643033038    -3.829338599      0    0    0 #  o_1/O
15  2  4    0.053000   11.547064202    -0.989371578    -7.757718387      0    0    0 #  hpan/H
16  2  4    0.053000   10.415784243    -0.121109863    -6.631483338      0    0    0 #  hpan/H
17  2  4    0.053000   11.729874705     0.798527231    -7.487591959      0    0    0 #  hpan/H
18  2  4    0.053000   13.453900278    -0.490674236    -6.225448868      0    0    0 #  hpan/H
19  2  4    0.053000   12.139809815    -1.410311330    -5.369340247      0    0    0 #  hpan/H
20  2  4    0.126800   11.587664864     1.512598358    -5.009197235      0    0    0 #  hpan/H
21  3  2   -0.159000   -0.502616621    12.458963248    -12.934997362     0    0    0 #  c3/C
22  3  1   -0.106000   -0.148602188    12.276873403    -11.465069129     0    0    0 #  c2/C
23  3  3    0.231500    0.808083614    11.119393671    -11.316911254     0    0    0 #  c=/C
24  3  5   -0.358300    1.214146110    10.807538511    -10.222792989     0    0    0 #  o_1/O
25  3  4    0.053000   -1.208252244    13.312700046    -13.044282524     0    0    0 #  hpan/H
26  3  4    0.053000    0.423557721    12.667215832    -13.516113538     0    0    0 #  hpan/H
27  3  4    0.053000   -0.981617406    11.530516017    -13.318922025     0    0    0 #  hpan/H
28  3  4    0.053000   -1.074776530    12.068620820    -10.883952954     0    0    0 #  hpan/H
29  3  4    0.053000    0.330398597    13.205320635    -11.081144467     0    0    0 #  hpan/H
30  3  4    0.126800    1.139678947    10.552857818    -12.215813758     0    0    0 #  hpan/H
31  4  2   -0.159000   12.932524039    12.683613575    -12.023710646     0    0    0 #  c3/C
32  4  1   -0.106000   11.577189986    12.155063786    -11.573292322     0    0    0 #  c2/C
33  4  3    0.231500   11.206813467    10.948478907    -12.400294118     0    0    0 #  c=/C
34  4  5   -0.358300   10.161807739    10.376546111    -12.200066552     0    0    0 #  o_1/O
35  4  4    0.053000   13.205713112    13.573570994    -11.413731201     0    0    0 #  hpan/H
36  4  4    0.053000   13.702644404    11.891437872    -11.888668660     0    0    0 #  hpan/H
37  4  4    0.053000   12.879994680    12.971970433    -13.097463480     0    0    0 #  hpan/H
38  4  4    0.053000   10.807069621    12.947239490    -11.708334308     0    0    0 #  hpan/H
39  4  4    0.053000   11.629719345    11.866706929    -10.499539487     0    0    0 #  hpan/H
40  4  4    0.126800   11.896523607    10.585371903    -13.194899225     0    0    0 #  hpan/H
41  5  2   -0.159000   -11.477523151   -5.242277624     0.700261052      0    0    0 #  c3/C
42  5  1   -0.106000   -12.618618666   -5.954975292    -0.013275912      0    0    0 #  c2/C
43  5  3    0.231500   -12.058548829   -7.037290906    -0.903148093      0    0    0 #  c=/C
44  5  5   -0.358300   -12.803412879   -7.724183409    -1.560864908      0    0    0 #  o_1/O
45  5  4    0.053000   -11.890615336   -4.443978125     1.356617782      0    0    0 #  hpan/H
46  5  4    0.053000   -10.912343424   -5.974873644     1.318920092      0    0    0 #  hpan/H
47  5  4    0.053000   -10.795782981   -4.787309752    -0.052791892      0    0    0 #  hpan/H
48  5  4    0.053000   -13.183798393   -5.222379272    -0.631934952      0    0    0 #  hpan/H
49  5  4    0.053000   -13.300358836   -6.409943164     0.739777032      0    0    0 #  hpan/H
50  5  4    0.126800   -10.958997506   -7.202788813    -0.953560199      0    0    0 #  hpan/H
51  6  2   -0.159000   12.611559780    -0.491900122     6.849423160      0    0    0 #  c3/C
52  6  1   -0.106000   12.127321594    -0.215405077     5.432300790      0    0    0 #  c2/C
53  6  3    0.231500   11.070832354     0.861583201     5.462042065      0    0    0 #  c=/C
54  6  5   -0.358300   10.554423418     1.229775726     4.433941269      0    0    0 #  o_1/O
55  6  4    0.053000   13.390809188    -1.286268313     6.827492909      0    0    0 #  hpan/H
56  6  4    0.053000   13.043206024     0.438553879     7.281627893      0    0    0 #  hpan/H
57  6  4    0.053000   11.755050274    -0.829849031     7.474752002      0    0    0 #  hpan/H
58  6  4    0.053000   11.695675350    -1.145859078     5.000096057      0    0    0 #  hpan/H
59  6  4    0.053000   12.983831100     0.122543832     4.806971948      0    0    0 #  hpan/H
60  6  4    0.126800   10.767290921     1.316824983     6.431351906      0    0    0 #  hpan/H
61  7  2   -0.159000   -11.122495255   12.064929882     5.249493283      0    0    0 #  c3/C
62  7  1   -0.106000   -12.365225484   11.503748626     5.927629786      0    0    0 #  c2/C
63  7  3    0.231500   -12.779380247   12.416639333     7.055488023      0    0    0 #  c=/C
64  7  5   -0.358300   -13.749104020   12.148989421     7.724243956      0    0    0 #  o_1/O
65  7  4    0.053000   -10.817016654   11.391600839     4.417602531      0    0    0 #  hpan/H
66  7  4    0.053000   -11.346835233   13.076781943     4.843671844      0    0    0 #  hpan/H
67  7  4    0.053000   -10.295656322   12.136665452     5.991143839      0    0    0 #  hpan/H
68  7  4    0.053000   -12.140885506   10.491896565     6.333451226      0    0    0 #  hpan/H
69  7  4    0.053000   -13.192064418   11.432013056     5.185979231      0    0    0 #  hpan/H
70  7  4    0.126800   -12.191336860   13.336734883     7.271296282      0    0    0 #  hpan/H
71  8  2   -0.159000   -5.666742699    11.128763187    11.316350393      0    0    0 #  c3/C
72  8  1   -0.106000   -6.576869157    12.203308616    11.896172687      0    0    0 #  c2/C
73  8  3    0.231500   -5.853082069    12.934846586    12.999776900      0    0    0 #  c=/C
74  8  5   -0.358300   -6.404290334    13.831134575    13.593133840      0    0    0 #  o_1/O
75  8  4    0.053000   -6.200590786    10.589189266    10.502349408      0    0    0 #  hpan/H
76  8  4    0.053000   -4.747869670    11.603729432    10.905323041      0    0    0 #  hpan/H
77  8  4    0.053000   -5.386550768    10.408303242    12.117152559      0    0    0 #  hpan/H
78  8  4    0.053000   -7.495742185    11.728342371    12.307200038      0    0    0 #  hpan/H
79  8  4    0.053000   -6.857061087    12.923768561    11.095370521      0    0    0 #  hpan/H
80  8  4    0.126800   -4.811201244    12.648614163    13.267170613      0    0    0 #  hpan/H
81  9  2   -0.159000   -4.892723325    12.318386177     5.899703414      0    0    0 #  c3/C
82  9  1   -0.106000   -6.291972336    12.234083326     6.494822877      0    0    0 #  c2/C
83  9  3    0.231500   -7.154173912    11.346647702     5.631095915      0    0    0 #  c=/C
84  9  5   -0.358300   -8.307308956    11.147851895     5.931087527      0    0    0 #  o_1/O
85  9  4    0.053000   -4.256772846    12.972942917     6.536770022      0    0    0 #  hpan/H
86  9  4    0.053000   -4.447178661    11.299397132     5.854810879      0    0    0 #  hpan/H
87  9  4    0.053000   -4.951366306    12.744149968     4.872990039      0    0    0 #  hpan/H
88  9  4    0.053000   -6.737516999    13.253072370     6.539715413      0    0    0 #  hpan/H
89  9  4    0.053000   -6.233329354    11.808319534     7.521536253      0    0    0 #  hpan/H
90  9  4    0.126800   -6.727657305    10.875148979     4.717467660      0    0    0 #  hpan/H
91  10 2   -0.159000    7.006710313    -11.432215617   -12.040571386     0    0    0 #  c3/C
92  10 1   -0.106000    5.961166416    -12.424476819   -11.549218555     0    0    0 #  c2/C
93  10 3    0.231500    4.721576637    -12.314095978   -12.402559671     0    0    0 #  c=/C
94  10 5   -0.358300    3.767784352    -13.020104508   -12.176578690     0    0    0 #  o_1/O
95  10 4    0.053000    7.921013870    -11.513626053   -11.411164723     0    0    0 #  hpan/H
96  10 4    0.053000    7.264415330    -11.659371559   -13.099274538     0    0    0 #  hpan/H
97  10 4    0.053000    6.599154127    -10.398846994   -11.970561353     0    0    0 #  hpan/H
98  10 4    0.053000    5.703461399    -12.197320876   -10.490515404     0    0    0 #  hpan/H
99  10 4    0.053000    6.368722602    -13.457845441   -11.619228588     0    0    0 #  hpan/H
100 10 4    0.126800    4.685994955    -11.582096154   -13.240327091     0    0    0 #  hpan/H
101 11 2   -0.159000   12.078800678    -6.838683787    -12.792395581     0    0    0 #  c3/C
102 11 1   -0.106000   11.421519874    -5.873272966    -11.815085072     0    0    0 #  c2/C
103 11 3    0.231500   12.481603201    -5.030350940    -11.149755373     0    0    0 #  c=/C
104 11 5   -0.358300   12.166705521    -4.196352421    -10.334573742     0    0    0 #  o_1/O
105 11 4    0.053000   11.296905469    -7.460412069    -13.283135049     0    0    0 #  hpan/H
106 11 4    0.053000   12.633327371    -6.262137938    -13.566320054     0    0    0 #  hpan/H
107 11 4    0.053000   12.786338883    -7.498814845    -12.242422095     0    0    0 #  hpan/H
108 11 4    0.053000   10.866993180    -6.449818814    -11.041160599     0    0    0 #  hpan/H
109 11 4    0.053000   10.713981669    -5.213141908    -12.365058558     0    0    0 #  hpan/H
110 11 4    0.126800   13.553824153    -5.177014311    -11.410093876     0    0    0 #  hpan/H
111 12 2   -0.159000   11.401317022     5.014105846    -11.915844149     0    0    0 #  c3/C
112 12 1   -0.106000   12.068940563     6.211359520    -12.579195028     0    0    0 #  c2/C
113 12 3    0.231500   12.713925631     7.076782846    -11.524683511     0    0    0 #  c=/C
114 12 5   -0.358300   13.300279011     8.083215835    -11.844867088     0    0    0 #  o_1/O
115 12 4    0.053000   10.925584775     4.375779972    -12.693629664     0    0    0 #  hpan/H
116 12 4    0.053000   12.166163497     4.420645063    -11.366591723     0    0    0 #  hpan/H
117 12 4    0.053000   10.624628307     5.370539433    -11.202707487     0    0    0 #  hpan/H
118 12 4    0.053000   11.304094087     6.804820303    -13.128447453     0    0    0 #  hpan/H
119 12 4    0.053000   12.845629277     5.854925933    -13.292331690     0    0    0 #  hpan/H
120 12 4    0.126800   12.649437831     6.787825248    -10.451702206     0    0    0 #  hpan/H
121 13 2   -0.159000   -12.217461343   10.873861996     0.148373041      0    0    0 #  c3/C
122 13 1   -0.106000   -12.490971642   12.370474047     0.081168682      0    0    0 #  c2/C
123 13 3    0.231500   -11.219077280   13.099509527    -0.276252371      0    0    0 #  c=/C
124 13 5   -0.358300   -11.221523484   14.302984181    -0.380549758      0    0    0 #  o_1/O
125 13 4    0.053000   -13.155586241   10.336131968     0.412000605      0    0    0 #  hpan/H
126 13 4    0.053000   -11.852835809   10.519033201    -0.841580900      0    0    0 #  hpan/H
127 13 4    0.053000   -11.444357768   10.672528118     0.923376068      0    0    0 #  hpan/H
128 13 4    0.053000   -12.855597176   12.725302843     1.071122624      0    0    0 #  hpan/H
129 13 4    0.053000   -13.264075217   12.571807926    -0.693834345      0    0    0 #  hpan/H
130 13 4    0.126800   -10.278514039   12.528366193    -0.443823646      0    0    0 #  hpan/H
131 14 2   -0.159000   -12.424103942    6.375762854    -13.008180997     0    0    0 #  c3/C
132 14 1   -0.106000   -12.367985031    6.102285866    -11.511106201     0    0    0 #  c2/C
133 14 3    0.231500   -11.072922472    5.404772493    -11.174585958     0    0    0 #  c=/C
134 14 5   -0.358300   -10.831570804    5.097516259    -10.031529464     0    0    0 #  o_1/O
135 14 4    0.053000   -13.379318761    6.890237250    -13.256398933     0    0    0 #  hpan/H
136 14 4    0.053000   -11.567619758    7.024543957    -13.298666769     0    0    0 #  hpan/H
137 14 4    0.053000   -12.366339595    5.412906108    -13.563540634     0    0    0 #  hpan/H
138 14 4    0.053000   -13.224469214    5.453504763    -11.220620429     0    0    0 #  hpan/H
139 14 4    0.053000   -12.425749378    7.065142612    -10.955746564     0    0    0 #  hpan/H
140 14 4    0.126800   -10.339921046    5.173327837    -11.979624051     0    0    0 #  hpan/H
141 15 2   -0.159000    6.806161928     6.775436271     6.293755567      0    0    0 #  c3/C
142 15 1   -0.106000    5.743165912     5.700765847     6.478944361      0    0    0 #  c2/C
143 15 3    0.231500    5.204434710     5.287510602     5.131373730      0    0    0 #  c=/C
144 15 5   -0.358300    4.346406713     4.440396841     5.057743578      0    0    0 #  o_1/O
145 15 4    0.053000    7.203525035     7.080250649     7.287698300      0    0    0 #  hpan/H
146 15 4    0.053000    7.635899528     6.372413704     5.670881274      0    0    0 #  hpan/H
147 15 4    0.053000    6.356343181     7.658735876     5.787495692      0    0    0 #  hpan/H
148 15 4    0.053000    4.913428312     6.103788414     7.101818655      0    0    0 #  hpan/H
149 15 4    0.053000    6.192984660     4.817466242     6.985204237      0    0    0 #  hpan/H
150 15 4    0.126800    5.597650021     5.763235555     4.205084607      0    0    0 #  hpan/H
151 16 2   -0.159000   -5.970896230     0.209083554    10.862930153      0    0    0 #  c3/C
152 16 1   -0.106000   -6.087627216    -0.595402244    12.150698928      0    0    0 #  c2/C
153 16 3    0.231500   -5.949517558     0.328182053    13.335973402      0    0    0 #  c=/C
154 16 5   -0.358300   -6.013206046    -0.115116781    14.457875845      0    0    0 #  o_1/O
155 16 4    0.053000   -6.072762875    -0.472131793     9.988687488      0    0    0 #  hpan/H
156 16 4    0.053000   -6.776926422     0.975991442    10.830810362      0    0    0 #  hpan/H
157 16 4    0.053000   -4.978203272     0.711274090    10.828008590      0    0    0 #  hpan/H
158 16 4    0.053000   -5.281597024    -1.362310132    12.182818719      0    0    0 #  hpan/H
159 16 4    0.053000   -7.080320175    -1.097592779    12.185620492      0    0    0 #  hpan/H
160 16 4    0.126800   -5.788943182     1.418022590    13.176576020      0    0    0 #  hpan/H
161 17 2   -0.159000   -10.911584819    0.066329411    -12.385283794     0    0    0 #  c3/C
162 17 1   -0.106000   -12.180196127   -0.569567705    -11.832624635     0    0    0 #  c2/C
163 17 3    0.231500   -13.242472933    0.488917831    -11.664892206     0    0    0 #  c=/C
164 17 5   -0.358300   -14.331376526    0.189355844    -11.236188637     0    0    0 #  o_1/O
165 17 4    0.053000   -10.128063081   -0.714387392    -12.509002665     0    0    0 #  hpan/H
166 17 4    0.053000   -11.130091627    0.531519088    -13.372561566     0    0    0 #  hpan/H
167 17 4    0.053000   -10.549491724    0.846354326    -11.678669413     0    0    0 #  hpan/H
168 17 4    0.053000   -11.961689320   -1.034757382    -10.845346863     0    0    0 #  hpan/H
169 17 4    0.053000   -12.542289223   -1.349592620    -12.539239016     0    0    0 #  hpan/H
170 17 4    0.126800   -13.022744620    1.545828599    -11.936191207     0    0    0 #  hpan/H
171 18 2   -0.159000   -13.140081259   -5.806160130     6.011472870      0    0    0 #  c3/C
172 18 1   -0.106000   -11.717369437   -5.845690264     5.469716115      0    0    0 #  c2/C
173 18 3    0.231500   -10.793445409   -6.409696808     6.521009994      0    0    0 #  c=/C
174 18 5   -0.358300   -9.613658539    -6.525803352     6.288938065      0    0    0 #  o_1/O
175 18 4    0.053000   -13.821557199   -5.390158993     5.236060079      0    0    0 #  hpan/H
176 18 4    0.053000   -13.464893350   -6.837560936     6.275240841      0    0    0 #  hpan/H
177 18 4    0.053000   -13.173742128   -5.162256391     6.918726462      0    0    0 #  hpan/H
178 18 4    0.053000   -11.392557345   -4.814289458     5.205948145      0    0    0 #  hpan/H
179 18 4    0.053000   -11.683708568   -6.489594004     4.562462523      0    0    0 #  hpan/H
180 18 4    0.126800   -11.198986765   -6.718789664     7.510424905      0    0    0 #  hpan/H
181 19 2   -0.159000    0.433142462     5.928850410     7.069960813      0    0    0 #  c3/C
182 19 1   -0.106000    0.415991951     6.141879192     5.562148975      0    0    0 #  c2/C
183 19 3    0.231500   -0.987434824     5.949711581     5.042127142      0    0    0 #  c=/C
184 19 5   -0.358300   -1.217162050     6.075208135     3.862842958      0    0    0 #  o_1/O
185 19 4    0.053000    1.468284579     6.070588784     7.453526231      0    0    0 #  hpan/H
186 19 4    0.053000   -0.245926276     6.664797758     7.555873574      0    0    0 #  hpan/H
187 19 4    0.053000    0.089698358     4.895991276     7.302559861      0    0    0 #  hpan/H
188 19 4    0.053000    1.095060689     5.405931845     5.076236215      0    0    0 #  hpan/H
189 19 4    0.053000    0.759436055     7.174738326     5.329549927      0    0    0 #  hpan/H
190 19 4    0.126800   -1.811090944     5.692302693     5.745174303      0    0    0 #  hpan/H
191 20 2   -0.159000   -0.754215577    -0.635086031    11.395586735      0    0    0 #  c3/C
192 20 1   -0.106000    0.374069140     0.354409264    11.654516454      0    0    0 #  c2/C
193 20 3    0.231500    0.609068313     0.473013104    13.140338223      0    0    0 #  c=/C
194 20 5   -0.358300    1.467661273     1.212449364    13.559011503      0    0    0 #  o_1/O
195 20 4    0.053000   -0.927551763    -0.722570514    10.299670483      0    0    0 #  hpan/H
196 20 4    0.053000   -0.475389678    -1.630947543    11.807144781      0    0    0 #  hpan/H
197 20 4    0.053000   -1.683976613    -0.275271005    11.890492508      0    0    0 #  hpan/H
198 20 4    0.053000    0.095243240     1.350270776    11.242958408      0    0    0 #  hpan/H
199 20 4    0.053000    1.303830176    -0.005405762    11.159610681      0    0    0 #  hpan/H
200 20 4    0.126800   -0.008738512    -0.120861653    13.850670223      0    0    0 #  hpan/H
201 21 2   -0.159000   -0.164385203    -1.121480600     6.229672737      0    0    0 #  c3/C
202 21 1   -0.106000    0.542863985     0.131172804     5.729842791      0    0    0 #  c2/C