HEADER,  h-BN-Dummy.mdf h-BN-Dummy.car  read w/ msi2lmp > all2lmp: v1.18 / 28 April 2024  Class: 2

12 atoms
10 bonds
12 angles
8 dihedrals
4 impropers

4 atom types
3 bond types
4 angle types
1 dihedral types
2 improper types

-0.508493067 2.003906933 xlo xhi
 0.178712880 2.354515104 ylo yhi
 0.782814892 8.490114892 zlo zhi
-1.256200000 0.000000000 0.000000000 xy xz yz

Masses

1    1.00000000  #  bbe  
2    8.81100000  #  bbn  
3    1.00000000  #  nbe  
4   12.00670000  #  nbn  

Pair Coeffs  # lj/class2/coul/long

1         0.00001000      0.00001000 #  bbe  
2         0.06200000      4.34000000 #  bbn  
3         0.00001000      0.00001000 #  nbe  
4         0.06200000      4.34000000 #  nbn  

Bond Coeffs  # class2

1         0.65000000    250.00000000      0.00000000      0.00000000 #  bbn        bbe   
2         1.48500000     75.00000000      0.00000000      0.00000000 #  bbn        nbn   
3         0.65000000    250.00000000      0.00000000      0.00000000 #  nbn        nbe   

Angle Coeffs  # class2

1       180.00000000     50.00000000      0.00000000      0.00000000 #  bbe       bbn        bbe   
2        90.00000000     50.00000000      0.00000000      0.00000000 #  bbe       bbn        nbn   
3        90.00000000     50.00000000      0.00000000      0.00000000 #  nbe       nbn        bbn   
4       180.00000000     50.00000000      0.00000000      0.00000000 #  nbe       nbn        nbe   

Dihedral Coeffs  # class2

1         0.00000000      0.00000000      0.00000000      0.00000000      0.00000000      0.00000000 #  nbe       nbn       bbn        bbe   

Improper Coeffs  # class2

1         0.00000000      0.00000000 #  bbe       bbn       bbe       nbn      nb==3   
2         0.00000000      0.00000000 #  bbn       nbn       nbe       nbe      nb==3   

BondBond Coeffs  # class2

1         0.00000000      0.65000000      0.65000000 #  bbe       bbn        bbe   
2         0.00000000      0.65000000      1.48500000 #  bbe       bbn        nbn   
3         0.00000000      0.65000000      1.48500000 #  nbe       nbn        bbn   
4         0.00000000      0.65000000      0.65000000 #  nbe       nbn        nbe   

BondAngle Coeffs  # class2

1         0.00000000      0.00000000      0.65000000      0.65000000 #  bbe       bbn        bbe   
2         0.00000000      0.00000000      0.65000000      1.48500000 #  bbe       bbn        nbn   
3         0.00000000      0.00000000      0.65000000      1.48500000 #  nbe       nbn        bbn   
4         0.00000000      0.00000000      0.65000000      0.65000000 #  nbe       nbn        nbe   

AngleAngleTorsion Coeffs  # class2

1         0.00000000     90.00000000     90.00000000 #  nbe       nbn       bbn        bbe   

EndBondTorsion Coeffs  # class2

1         0.00000000      0.00000000      0.00000000      0.00000000      0.00000000      0.00000000      0.65000000      0.65000000 #  nbe       nbn       bbn        bbe   

MiddleBondTorsion Coeffs  # class2

1         0.00000000      0.00000000      0.00000000      1.48500000 #  nbe       nbn       bbn        bbe   

BondBond13 Coeffs  # class2

1         0.00000000      0.65000000      0.65000000 #  nbe       nbn       bbn        bbe   

AngleTorsion Coeffs  # class2

1         0.00000000      0.00000000      0.00000000      0.00000000      0.00000000      0.00000000     90.00000000     90.00000000 #  nbe       nbn       bbn        bbe   

AngleAngle Coeffs  # class2

1         0.00000000      0.00000000      0.00000000    180.00000000     90.00000000     90.00000000 #  bbe       bbn       bbe       nbn      nb==3   
2         0.00000000      0.00000000      0.00000000     90.00000000    180.00000000     90.00000000 #  bbn       nbn       nbe       nbe      nb==3   

Atoms # full

  1     1   2    0.650000    0.054294801     1.406701405     1.939121856      0    0    0 #  bbn/B
  2     2   2    0.650000    1.248138530     0.720654174     5.780833465      0    0    0 #  bbn/B
  3     2   4   -0.250000   -0.008121562     1.445815900     5.781022807      0    0    0 #  nbn/N
  4     1   4   -0.250000    1.310470164     0.681394464     1.938932527      0    0    0 #  nbn/N
  5     1   3   -0.100000    1.311874552     0.683855174     2.595290302      0    0    0 #  nbe/H
  6     1   3   -0.100000    1.308932750     0.678712880     1.282814892      0    0    0 #  nbe/H
  7     2   1   -0.100000    1.248899030     0.721982142     5.132442357      0    0    0 #  bbe/H
  8     2   1   -0.100000    1.247675717     0.719864892     6.429464750      0    0    0 #  bbe/H
  9     2   3   -0.100000   -0.008493067     1.445168723     6.437137514      0    0    0 #  nbe/H
  10    2   3   -0.100000   -0.008058016     1.445920763     5.124667792      0    0    0 #  nbe/H
  11    1   1   -0.100000    0.054281540     1.406667452     2.587511998      0    0    0 #  bbe/H
  12    1   1   -0.100000    0.054445885     1.406949611     1.290490782      0    0    0 #  bbe/H

Bonds

  1   2     1     4  
  2   1     1    11  
  3   1     1    12  
  4   2     2     3  
  5   1     2     7  
  6   1     2     8  
  7   3     3     9  
  8   3     3    10  
  9   3     4     5  
 10   3     4     6  

Angles

  1   2    11     1     4  
  2   1    11     1    12  
  3   2    12     1     4  
  4   2     8     2     3  
  5   1     7     2     8  
  6   2     7     2     3  
  7   3     9     3     2  
  8   4     9     3    10  
  9   3    10     3     2  
 10   4     5     4     6  
 11   3     6     4     1  
 12   3     5     4     1  

Dihedrals

  1   1    10     3     2     7  
  2   1     9     3     2     8  
  3   1     9     3     2     7  
  4   1    10     3     2     8  
  5   1     5     4     1    12  
  6   1     6     4     1    12  
  7   1     6     4     1    11  
  8   1     5     4     1    11  

Impropers

  1   1    11     1    12     4  
  2   1     7     2     8     3  
  3   2     2     3     9    10  
  4   2     1     4     5     6  
