HEADER,  post2b.mol  read w/ mol2lmp > atom_typing v1.0 / 16 Jan 2023 w/PCFF-IFF atom-types > all2lmp: v1.4 / 9 Jan 2023  Class: 2

37 atoms
35 bonds
66 angles
90 dihedrals
44 impropers

4 atom types
5 bond types
9 angle types
10 dihedral types
8 improper types

-3.946829730 7.024370270 xlo xhi
-6.376210811 4.916789189 ylo yhi
-5.085362162 2.978837838 zlo zhi

Masses # class2

1   12.01115000  #  c2   
2    1.00797000  #  h    
3    1.00797000  #  hpan 
4   28.08600000  #  si   

Pair Coeffs  # lj/class2/coul/long

1         0.05400000      4.01000000 #  c2   
2         0.02000000      2.99500000 #  h    
3         0.02000000      2.30000000 #  hpan 
4         0.19000000      4.45000000 #  si   

Bond Coeffs  # class2

1         1.53000000    299.67000000   -501.77000000    679.81000000 #  c2          c2   
2         1.10100000    345.00000000   -691.89000000    844.60000000 #  c2        hpan   
3         1.89950000    189.65360000   -279.42100000    307.51350000 #  c2          si   
4         0.74140000    414.00000000      0.00000000      0.00000000 #  h            h   
5         1.47830000    202.77980000   -305.36030000    280.26850000 #  h           si   

Angle Coeffs  # class2

1       112.67000000     39.51600000     -7.44300000     -9.55830000 #  c2         c2         c2   
2       110.77000000     41.45300000    -10.60400000      5.12900000 #  c2         c2       hpan   
3       112.67000000     39.51600000     -7.44300000      0.00000000 #  c2         c2         si   
4       113.18550000     36.20690000    -20.39390000     20.01720000 #  c2         si         c2   
5       112.09770000     36.48320000    -12.80940000      0.00000000 #  c2         si          h   
6       108.60510000     32.54150000     -8.31640000      0.00000000 #  h          si          h   
7       107.66000000     39.64100000    -12.92100000     -2.43180000 #  hpan       c2       hpan   
8       112.03550000     28.77210000    -13.95230000      0.00000000 #  hpan       c2         si   
9       112.30000000     34.60000000      0.00000000      0.00000000 #  si         c2         si   

Dihedral Coeffs  # class2

1         0.00000000      0.00000000      0.03160000      0.00000000     -0.16810000      0.00000000 #  c2         c2        c2       hpan   
2        -0.14320000      0.00000000      0.06170000      0.00000000     -0.10830000      0.00000000 #  hpan       c2        c2       hpan   
3         0.00000000      0.00000000      0.05140000      0.00000000     -0.14300000      0.00000000 #  c2         c2        c2         si   
4         0.00000000      0.00000000      0.05140000      0.00000000     -0.14300000      0.00000000 #  hpan       c2        c2         si   
5         0.00000000      0.00000000      0.00000000      0.00000000     -0.06570000      0.00000000 #  c2         c2        si         c2   
6         0.00000000      0.00000000      0.00000000      0.00000000     -0.06570000      0.00000000 #  c2         c2        si          h   
7         0.00000000      0.00000000      0.00000000      0.00000000     -0.06570000      0.00000000 #  hpan       c2        si          h   
8         0.00000000      0.00000000      0.00000000      0.00000000     -0.06570000      0.00000000 #  hpan       c2        si         c2   
9         0.00000000      0.00000000      0.00000000      0.00000000      0.11110000      0.00000000 #  si         c2        si         c2   
10        0.00000000      0.00000000      0.00000000      0.00000000      0.11110000      0.00000000 #  si         c2        si          h   

Improper Coeffs  # class2

1         0.00000000      0.00000000 #  c2         c2        c2       hpan     nb!=3   
2         0.00000000      0.00000000 #  c2         c2       hpan      hpan     nb!=3   
3         0.00000000      0.00000000 #  c2         c2       hpan       si      nb!=3   
4         0.00000000      0.00000000 #  c2         si        c2        c2      nb!=3   
5         0.00000000      0.00000000 #  c2         si        c2        h       nb!=3   
6         0.00000000      0.00000000 #  c2         si        h         h       nb!=3   
7         0.00000000      0.00000000 #  hpan       c2       hpan       si      nb!=3   
8         0.00000000      0.00000000 #  hpan       c2        si        si      nb!=3   

BondBond Coeffs  # class2

1         0.00000000      1.53000000      1.53000000 #  c2         c2         c2   
2         3.38720000      1.53000000      1.10100000 #  c2         c2       hpan   
3         0.00000000      1.53000000      1.89950000 #  c2         c2         si   
4         3.74190000      1.89950000      1.89950000 #  c2         si         c2   
5         3.92640000      1.89950000      1.47830000 #  c2         si          h   
6         4.64080000      1.47830000      1.47830000 #  h          si          h   
7         5.33160000      1.10100000      1.10100000 #  hpan       c2       hpan   
8         1.65610000      1.10100000      1.89950000 #  hpan       c2         si   
9         0.00000000      1.89950000      1.89950000 #  si         c2         si   

BondAngle Coeffs  # class2

1         8.01600000      8.01600000      1.53000000      1.53000000 #  c2         c2         c2   
2        20.75400000     11.42100000      1.53000000      1.10100000 #  c2         c2       hpan   
3         0.00000000      0.00000000      1.53000000      1.89950000 #  c2         c2         si   
4        18.58050000     18.58050000      1.89950000      1.89950000 #  c2         si         c2   
5        13.39610000      7.41040000      1.89950000      1.47830000 #  c2         si          h   
6         9.34670000      9.34670000      1.47830000      1.47830000 #  h          si          h   
7        18.10300000     18.10300000      1.10100000      1.10100000 #  hpan       c2       hpan   
8        16.69080000     18.27640000      1.10100000      1.89950000 #  hpan       c2         si   
9         0.00000000      0.00000000      1.89950000      1.89950000 #  si         c2         si   

AngleAngleTorsion Coeffs  # class2

1       -16.16400000    112.67000000    110.77000000 #  c2         c2        c2       hpan   
2       -12.56400000    110.77000000    110.77000000 #  hpan       c2        c2       hpan   
3         0.00000000    112.67000000    112.67000000 #  c2         c2        c2         si   
4         0.00000000    110.77000000    112.67000000 #  hpan       c2        c2         si   
5         0.00000000    112.67000000    113.18550000 #  c2         c2        si         c2   
6         0.00000000    112.67000000    112.09770000 #  c2         c2        si          h   
7       -12.93410000    112.03550000    112.09770000 #  hpan       c2        si          h   
8       -17.58020000    112.03550000    113.18550000 #  hpan       c2        si         c2   
9         0.00000000    112.30000000    113.18550000 #  si         c2        si         c2   
10        0.00000000    112.30000000    112.09770000 #  si         c2        si          h   

EndBondTorsion Coeffs  # class2

1         0.24860000      0.24220000     -0.09250000      0.08140000      0.05910000      0.22190000      1.53000000      1.10100000 #  c2         c2        c2       hpan   
2         0.21300000      0.31200000      0.07770000      0.21300000      0.31200000      0.07770000      1.10100000      1.10100000 #  hpan       c2        c2       hpan   
3         0.00000000      0.00000000      0.00000000      0.00000000      0.00000000      0.00000000      1.53000000      1.89950000 #  c2         c2        c2         si   
4         0.00000000      0.00000000      0.00000000      0.00000000      0.00000000      0.00000000      1.10100000      1.89950000 #  hpan       c2        c2         si   
5         0.00000000      0.00000000      0.00000000      0.00000000      0.00000000      0.00000000      1.53000000      1.89950000 #  c2         c2        si         c2   
6         0.00000000      0.00000000      0.00000000      0.00000000      0.00000000      0.00000000      1.53000000      1.47830000 #  c2         c2        si          h   
7         0.00000000      0.00000000      0.00000000      0.00000000      0.00000000      0.00000000      1.10100000      1.47830000 #  hpan       c2        si          h   
8         0.00000000      0.00000000      0.00000000      0.00000000      0.00000000      0.00000000      1.10100000      1.89950000 #  hpan       c2        si         c2   
9         0.00000000      0.00000000      0.00000000      0.00000000      0.00000000      0.00000000      1.89950000      1.89950000 #  si         c2        si         c2   
10        0.00000000      0.00000000      0.00000000      0.00000000      0.00000000      0.00000000      1.89950000      1.47830000 #  si         c2        si          h   

MiddleBondTorsion Coeffs  # class2

1       -14.87900000     -3.65810000     -0.31380000      1.53000000 #  c2         c2        c2       hpan   
2       -14.26100000     -0.53220000     -0.48640000      1.53000000 #  hpan       c2        c2       hpan   
3         0.00000000      0.00000000      0.00000000      1.53000000 #  c2         c2        c2         si   
4         0.00000000      0.00000000      0.00000000      1.53000000 #  hpan       c2        c2         si   
5         0.00000000      0.00000000      0.00000000      1.89950000 #  c2         c2        si         c2   
6         0.00000000      0.00000000      0.00000000      1.89950000 #  c2         c2        si          h   
7         0.00000000      0.00000000     -0.59060000      1.89950000 #  hpan       c2        si          h   
8         0.00000000      0.00000000      0.00000000      1.89950000 #  hpan       c2        si         c2   
9         0.00000000      0.00000000      0.00000000      1.89950000 #  si         c2        si         c2   
10        0.00000000      0.00000000      0.00000000      1.89950000 #  si         c2        si          h   

BondBond13 Coeffs  # class2

1         0.00000000      1.53000000      1.10100000 #  c2         c2        c2       hpan   
2         0.00000000      1.10100000      1.10100000 #  hpan       c2        c2       hpan   
3         0.00000000      1.53000000      1.89950000 #  c2         c2        c2         si   
4         0.00000000      1.10100000      1.89950000 #  hpan       c2        c2         si   
5         0.00000000      1.53000000      1.89950000 #  c2         c2        si         c2   
6         0.00000000      1.53000000      1.47830000 #  c2         c2        si          h   
7         0.00000000      1.10100000      1.47830000 #  hpan       c2        si          h   
8         0.00000000      1.10100000      1.89950000 #  hpan       c2        si         c2   
9         0.00000000      1.89950000      1.89950000 #  si         c2        si         c2   
10        0.00000000      1.89950000      1.47830000 #  si         c2        si          h   

AngleTorsion Coeffs  # class2

1        -0.24540000      0.00000000     -0.11360000      0.31130000      0.45160000     -0.19880000    112.67000000    110.77000000 #  c2         c2        c2       hpan   
2        -0.80850000      0.55690000     -0.24660000     -0.80850000      0.55690000     -0.24660000    110.77000000    110.77000000 #  hpan       c2        c2       hpan   
3         0.00000000      0.00000000      0.00000000      0.00000000      0.00000000      0.00000000    112.67000000    112.67000000 #  c2         c2        c2         si   
4         0.00000000      0.00000000      0.00000000      0.00000000      0.00000000      0.00000000    110.77000000    112.67000000 #  hpan       c2        c2         si   
5         0.00000000      0.00000000      0.00000000      0.00000000      0.00000000      0.00000000    112.67000000    113.18550000 #  c2         c2        si         c2   
6         0.00000000      0.00000000      0.00000000      0.00000000      0.00000000      0.00000000    112.67000000    112.09770000 #  c2         c2        si          h   
7         0.00000000      0.00000000      0.00000000      0.00000000      0.00000000     -0.14230000    112.03550000    112.09770000 #  hpan       c2        si          h   
8         0.00000000      0.00000000      0.33820000      0.00000000      0.00000000      0.42720000    112.03550000    113.18550000 #  hpan       c2        si         c2   
9         0.00000000      0.00000000      0.00000000      0.00000000      0.00000000      0.00000000    112.30000000    113.18550000 #  si         c2        si         c2   
10        0.00000000      0.00000000      0.00000000      0.00000000      0.00000000      0.00000000    112.30000000    112.09770000 #  si         c2        si          h   

AngleAngle Coeffs  # class2

1        -1.31990000     -1.31990000      0.11840000    112.67000000    110.77000000    110.77000000 #  c2         c2        c2       hpan     nb!=3   
2         0.27380000     -0.48250000      0.27380000    110.77000000    110.77000000    107.66000000 #  c2         c2       hpan      hpan     nb!=3   
3         0.00000000      0.00000000      0.00000000    110.77000000    112.03550000    112.67000000 #  c2         c2       hpan       si      nb!=3   
4         0.00000000      0.00000000      0.00000000    113.18550000    113.18550000    113.18550000 #  c2         si        c2        c2      nb!=3   
5         3.38270000      3.38270000      2.79630000    113.18550000    112.09770000    112.09770000 #  c2         si        c2        h       nb!=3   
6         4.45590000      4.68090000      4.45590000    112.09770000    112.09770000    108.60510000 #  c2         si        h         h       nb!=3   
7         0.00000000      0.00000000      2.20500000    107.66000000    112.03550000    112.03550000 #  hpan       c2       hpan       si      nb!=3   
8         0.00000000      0.00000000      0.00000000    112.03550000    112.30000000    112.03550000 #  hpan       c2        si        si      nb!=3   

Atoms # full

 1  1  1   -0.106000   -1.928629730     2.229289189     1.819537838      0    0    0 #  c2/C
 2  1  1   -0.241000   -0.609729730     1.467689189     1.819537838      0    0    0 #  c2/C
 3  1  4    0.531000   -0.509229730     0.386589189     0.284837838      0    0    0 #  si/Si
 4  1  1   -0.376000   -0.608429730     1.466289189    -1.250962162      0    0    0 #  c2/C
 5  1  4    0.522000   -2.103029730     0.964789189    -2.275262162      0    0    0 #  si/Si
 6  1  1   -0.376000   -2.202229730     2.044489189    -3.811062162      0    0    0 #  c2/C
 7  1  4    0.135000   -3.696829730     1.542889189    -4.835362162      0    0    0 #  si/Si
 8  1  1   -0.135000    3.696470270    -6.126210811     0.289537838      0    0    0 #  c2/C
 9  1  1   -0.376000    2.408170270    -3.339010811     0.287737838      0    0    0 #  c2/C
10  1  4    0.522000    0.779070270    -2.400610811     0.286637838      0    0    0 #  si/Si
11  1  4    0.522000    2.067370270    -5.187810811     0.288437838      0    0    0 #  si/Si
12  1  1   -0.241000   -1.651129730     3.726789189     1.819537838      0    0    0 #  c2/C
13  1  4    0.135000   -3.279229730     4.666789189     1.819537838      0    0    0 #  si/Si
14  1  1   -0.376000    1.119770270    -0.551810811     0.285937838      0    0    0 #  c2/C
15  1  3    0.053000   -2.511529730     1.960489189     2.728837838      0    0    0 #  hpan/H
16  1  3    0.053000   -2.512129730     1.960289189     0.910737838      0    0    0 #  hpan/H
17  1  3    0.053000    0.235870270     2.191389189     1.818937838      0    0    0 #  hpan/H
18  1  3    0.053000   -0.550929730     0.827889189     2.728337838      0    0    0 #  hpan/H
19  1  2   -0.126000   -1.640929730    -0.581210811     0.284837838      0    0    0 #  h/H
20  1  3    0.053000   -0.707729730     2.532789189    -0.948362162      0    0    0 #  hpan/H
21  1  3    0.053000    0.316470270     1.336089189    -1.856262162      0    0    0 #  hpan/H
22  1  2   -0.126000   -1.970229730    -0.462010811    -2.680162162      0    0    0 #  h/H
23  1  2   -0.126000   -3.340429730     1.138989189    -1.465562162      0    0    0 #  h/H
24  1  3    0.053000   -2.301529730     3.110889189    -3.508462162      0    0    0 #  hpan/H
25  1  3    0.053000   -1.277329730     1.914189189    -4.416362162      0    0    0 #  hpan/H
26  1  3    0.053000    2.990470270    -3.069210811     1.197137838      0    0    0 #  hpan/H
27  1  3    0.053000    2.991770270    -3.069810811    -0.620962162      0    0    0 #  hpan/H
28  1  2   -0.126000    0.000070270    -2.761510811    -0.929962162      0    0    0 #  h/H
29  1  2   -0.126000   -0.001629730    -2.760710811     1.502337838      0    0    0 #  h/H
30  1  2   -0.126000    1.288370270    -5.548710811    -0.928062162      0    0    0 #  h/H
31  1  2   -0.126000    1.286670270    -5.547910811     1.504137838      0    0    0 #  h/H
32  1  3    0.053000   -1.068129730     3.995489189     0.910337838      0    0    0 #  hpan/H
33  1  3    0.053000   -1.067629730     3.995789189     2.728337838      0    0    0 #  hpan/H
34  1  3    0.053000    1.702070270    -0.282010811     1.195237838      0    0    0 #  hpan/H
35  1  3    0.053000    1.703370270    -0.282610811    -0.622762162      0    0    0 #  hpan/H
36  2  2    0.000000    6.774370270    -0.920110811     1.819537838      0    0    0 #  h/H
37  2  2    0.000000    6.178270270    -0.568610811     1.819537838      0    0    0 #  h/H

Bonds

  1   1     1     2  
  2   1     1    12  
  3   2     1    15  
  4   2     1    16  
  5   3     2     3  
  6   2     2    17  
  7   2     2    18  
  8   3     4     3  
  9   3    14     3  
 10   5    19     3  
 11   3     4     5  
 12   2     4    20  
 13   2     4    21  
 14   3     6     5  
 15   5    22     5  
 16   5    23     5  
 17   3     6     7  
 18   2     6    24  
 19   2     6    25  
 20   3     8    11  
 21   3     9    10  
 22   3     9    11  
 23   2     9    26  
 24   2     9    27  
 25   3    14    10  
 26   5    28    10  
 27   5    29    10  
 28   5    30    11  
 29   5    31    11  
 30   3    12    13  
 31   2    12    32  
 32   2    12    33  
 33   2    14    34  
 34   2    14    35  
 35   4    36    37  

Angles

  1   3     1     2     3  
  2   2     1     2    17  
  3   2     1     2    18  
  4   3     1    12    13  
  5   2     1    12    32  
  6   2     1    12    33  
  7   1     2     1    12  
  8   2     2     1    15  
  9   2     2     1    16  
 10   4     2     3     4  
 11   4     2     3    14  
 12   5     2     3    19  
 13   8    17     2     3  
 14   8    18     2     3  
 15   9     3     4     5  
 16   8    20     4     3  
 17   8    21     4     3  
 18   9     3    14    10  
 19   8    34    14     3  
 20   8    35    14     3  
 21   4     4     3    14  
 22   5     4     3    19  
 23   4     4     5     6  
 24   5     4     5    22  
 25   5     4     5    23  
 26   8    20     4     5  
 27   8    21     4     5  
 28   9     5     6     7  
 29   8    24     6     5  
 30   8    25     6     5  
 31   5     6     5    22  
 32   5     6     5    23  
 33   8    24     6     7  
 34   8    25     6     7  
 35   4     8    11     9  
 36   5     8    11    30  
 37   5     8    11    31  
 38   4     9    10    14  
 39   5     9    10    28  
 40   5     9    10    29  
 41   5     9    11    30  
 42   5     9    11    31  
 43   9    10     9    11  
 44   8    26     9    10  
 45   8    27     9    10  
 46   8    34    14    10  
 47   8    35    14    10  
 48   8    26     9    11  
 49   8    27     9    11  
 50   2    12     1    15  
 51   2    12     1    16  
 52   8    32    12    13  
 53   8    33    12    13  
 54   5    14     3    19  
 55   5    14    10    28  
 56   5    14    10    29  
 57   7    15     1    16  
 58   7    17     2    18  
 59   7    20     4    21  
 60   6    22     5    23  
 61   7    24     6    25  
 62   7    26     9    27  
 63   6    28    10    29  
 64   6    30    11    31  
 65   7    32    12    33  
 66   7    34    14    35  

Dihedrals

  1   5     1     2     3     4  
  2   5     1     2     3    14  
  3   6     1     2     3    19  
  4   3     2     1    12    13  
  5   1     2     1    12    32  
  6   1     2     1    12    33  
  7   9     5     4     3     2  
  8   8    20     4     3     2  
  9   8    21     4     3     2  
 10   9    10    14     3     2  
 11   8    34    14     3     2  
 12   8    35    14     3     2  
 13   3    12     1     2     3  
 14   4    15     1     2     3  
 15   4    16     1     2     3  
 16   9     3     4     5     6  
 17   10    3     4     5    22  
 18   10    3     4     5    23  
 19   9     3    14    10     9  
 20   10    3    14    10    28  
 21   10    3    14    10    29  
 22   8    17     2     3     4  
 23   8    18     2     3     4  
 24   9    10    14     3     4  
 25   8    34    14     3     4  
 26   8    35    14     3     4  
 27   9     7     6     5     4  
 28   8    24     6     5     4  
 29   8    25     6     5     4  
 30   9     5     4     3    14  
 31   10    5     4     3    19  
 32   8    20     4     5     6  
 33   8    21     4     5     6  
 34   10    7     6     5    22  
 35   10    7     6     5    23  
 36   9    10     9    11     8  
 37   8    26     9    11     8  
 38   8    27     9    11     8  
 39   8    34    14    10     9  
 40   8    35    14    10     9  
 41   10   10     9    11    30  
 42   10   10     9    11    31  
 43   10   10    14     3    19  
 44   9    11     9    10    14  
 45   10   11     9    10    28  
 46   10   11     9    10    29  
 47   1    12     1     2    17  
 48   1    12     1     2    18  
 49   4    15     1    12    13  
 50   4    16     1    12    13  
 51   8    17     2     3    14  
 52   8    18     2     3    14  
 53   8    20     4     3    14  
 54   8    21     4     3    14  
 55   8    26     9    10    14  
 56   8    27     9    10    14  
 57   2    15     1     2    17  
 58   2    15     1     2    18  
 59   2    15     1    12    32  
 60   2    15     1    12    33  
 61   2    16     1     2    17  
 62   2    16     1     2    18  
 63   2    16     1    12    32  
 64   2    16     1    12    33  
 65   7    17     2     3    19  
 66   7    18     2     3    19  
 67   7    20     4     3    19  
 68   7    21     4     3    19  
 69   7    34    14     3    19  
 70   7    35    14     3    19  
 71   7    20     4     5    22  
 72   7    20     4     5    23  
 73   7    21     4     5    22  
 74   7    21     4     5    23  
 75   7    24     6     5    22  
 76   7    25     6     5    22  
 77   7    24     6     5    23  
 78   7    25     6     5    23  
 79   7    26     9    10    28  
 80   7    26     9    10    29  
 81   7    26     9    11    30  
 82   7    26     9    11    31  
 83   7    27     9    10    28  
 84   7    27     9    10    29  
 85   7    27     9    11    30  
 86   7    27     9    11    31  
 87   7    34    14    10    28  
 88   7    35    14    10    28  
 89   7    34    14    10    29  
 90   7    35    14    10    29  

Impropers

  1   3     1     2    17     3  
  2   3     1     2    18     3  
  3   2     1     2    17    18  
  4   3     1    12    32    13  
  5   3     1    12    33    13  
  6   2     1    12    32    33  
  7   1     2     1    12    15  
  8   1     2     1    12    16  
  9   2     2     1    15    16  
 10   4     2     3     4    14  
 11   5     2     3     4    19  
 12   5     2     3    14    19  
 13   7    17     2    18     3  
 14   8    20     4     3     5  
 15   8    21     4     3     5  
 16   7    20     4    21     3  
 17   8    34    14     3    10  
 18   8    35    14     3    10  
 19   7    34    14    35     3  
 20   5     4     3    14    19  
 21   5     4     5     6    22  
 22   5     4     5     6    23  
 23   6     4     5    22    23  
 24   7    20     4    21     5  
 25   8    24     6     5     7  
 26   8    25     6     5     7  
 27   7    24     6    25     5  
 28   6     6     5    22    23  
 29   7    24     6    25     7  
 30   5     8    11     9    30  
 31   5     8    11     9    31  
 32   6     8    11    30    31  
 33   5     9    10    14    28  
 34   5     9    10    14    29  
 35   6     9    10    28    29  
 36   6     9    11    30    31  
 37   8    26     9    10    11  
 38   8    27     9    10    11  
 39   7    26     9    27    10  
 40   7    34    14    35    10  
 41   7    26     9    27    11  
 42   2    12     1    15    16  
 43   7    32    12    33    13  
 44   6    14    10    28    29  
