HEADER,  post1b.mol  read w/ mol2lmp > atom_typing v1.0 / 16 Jan 2023 w/PCFF-IFF atom-types > all2lmp: v1.4 / 9 Jan 2023  Class: 2

41 atoms
40 bonds
78 angles
108 dihedrals
52 impropers

4 atom types
4 bond types
9 angle types
10 dihedral types
8 improper types

-5.344851219 6.091948781 xlo xhi
-3.535724390 3.779475610 ylo yhi
-4.541404878 5.057795122 zlo zhi

Masses # class2

1   12.01115000  #  c2   
2    1.00797000  #  h    
3    1.00797000  #  hpan 
4   28.08600000  #  si   

Pair Coeffs  # lj/class2/coul/long

1         0.05400000      4.01000000 #  c2   
2         0.02000000      2.99500000 #  h    
3         0.02000000      2.30000000 #  hpan 
4         0.19000000      4.45000000 #  si   

Bond Coeffs  # class2

1         1.53000000    299.67000000   -501.77000000    679.81000000 #  c2          c2   
2         1.10100000    345.00000000   -691.89000000    844.60000000 #  c2        hpan   
3         1.89950000    189.65360000   -279.42100000    307.51350000 #  c2          si   
4         1.47830000    202.77980000   -305.36030000    280.26850000 #  h           si   

Angle Coeffs  # class2

1       112.67000000     39.51600000     -7.44300000     -9.55830000 #  c2         c2         c2   
2       110.77000000     41.45300000    -10.60400000      5.12900000 #  c2         c2       hpan   
3       112.67000000     39.51600000     -7.44300000      0.00000000 #  c2         c2         si   
4       113.18550000     36.20690000    -20.39390000     20.01720000 #  c2         si         c2   
5       112.09770000     36.48320000    -12.80940000      0.00000000 #  c2         si          h   
6       108.60510000     32.54150000     -8.31640000      0.00000000 #  h          si          h   
7       107.66000000     39.64100000    -12.92100000     -2.43180000 #  hpan       c2       hpan   
8       112.03550000     28.77210000    -13.95230000      0.00000000 #  hpan       c2         si   
9       112.30000000     34.60000000      0.00000000      0.00000000 #  si         c2         si   

Dihedral Coeffs  # class2

1         0.00000000      0.00000000      0.03160000      0.00000000     -0.16810000      0.00000000 #  c2         c2        c2       hpan   
2        -0.14320000      0.00000000      0.06170000      0.00000000     -0.10830000      0.00000000 #  hpan       c2        c2       hpan   
3         0.00000000      0.00000000      0.05140000      0.00000000     -0.14300000      0.00000000 #  c2         c2        c2         si   
4         0.00000000      0.00000000      0.05140000      0.00000000     -0.14300000      0.00000000 #  hpan       c2        c2         si   
5         0.00000000      0.00000000      0.00000000      0.00000000     -0.06570000      0.00000000 #  c2         c2        si         c2   
6         0.00000000      0.00000000      0.00000000      0.00000000     -0.06570000      0.00000000 #  c2         c2        si          h   
7         0.00000000      0.00000000      0.00000000      0.00000000     -0.06570000      0.00000000 #  hpan       c2        si         c2   
8         0.00000000      0.00000000      0.00000000      0.00000000     -0.06570000      0.00000000 #  hpan       c2        si          h   
9         0.00000000      0.00000000      0.00000000      0.00000000      0.11110000      0.00000000 #  si         c2        si         c2   
10        0.00000000      0.00000000      0.00000000      0.00000000      0.11110000      0.00000000 #  si         c2        si          h   

Improper Coeffs  # class2

1         0.00000000      0.00000000 #  c2         c2        c2       hpan     nb!=3   
2         0.00000000      0.00000000 #  c2         c2       hpan      hpan     nb!=3   
3         0.00000000      0.00000000 #  c2         c2       hpan       si      nb!=3   
4         0.00000000      0.00000000 #  c2         si        c2        c2      nb!=3   
5         0.00000000      0.00000000 #  c2         si        c2        h       nb!=3   
6         0.00000000      0.00000000 #  c2         si        h         h       nb!=3   
7         0.00000000      0.00000000 #  hpan       c2       hpan       si      nb!=3   
8         0.00000000      0.00000000 #  hpan       c2        si        si      nb!=3   

BondBond Coeffs  # class2

1         0.00000000      1.53000000      1.53000000 #  c2         c2         c2   
2         3.38720000      1.53000000      1.10100000 #  c2         c2       hpan   
3         0.00000000      1.53000000      1.89950000 #  c2         c2         si   
4         3.74190000      1.89950000      1.89950000 #  c2         si         c2   
5         3.92640000      1.89950000      1.47830000 #  c2         si          h   
6         4.64080000      1.47830000      1.47830000 #  h          si          h   
7         5.33160000      1.10100000      1.10100000 #  hpan       c2       hpan   
8         1.65610000      1.10100000      1.89950000 #  hpan       c2         si   
9         0.00000000      1.89950000      1.89950000 #  si         c2         si   

BondAngle Coeffs  # class2

1         8.01600000      8.01600000      1.53000000      1.53000000 #  c2         c2         c2   
2        20.75400000     11.42100000      1.53000000      1.10100000 #  c2         c2       hpan   
3         0.00000000      0.00000000      1.53000000      1.89950000 #  c2         c2         si   
4        18.58050000     18.58050000      1.89950000      1.89950000 #  c2         si         c2   
5        13.39610000      7.41040000      1.89950000      1.47830000 #  c2         si          h   
6         9.34670000      9.34670000      1.47830000      1.47830000 #  h          si          h   
7        18.10300000     18.10300000      1.10100000      1.10100000 #  hpan       c2       hpan   
8        16.69080000     18.27640000      1.10100000      1.89950000 #  hpan       c2         si   
9         0.00000000      0.00000000      1.89950000      1.89950000 #  si         c2         si   

AngleAngleTorsion Coeffs  # class2

1       -16.16400000    112.67000000    110.77000000 #  c2         c2        c2       hpan   
2       -12.56400000    110.77000000    110.77000000 #  hpan       c2        c2       hpan   
3         0.00000000    112.67000000    112.67000000 #  c2         c2        c2         si   
4         0.00000000    110.77000000    112.67000000 #  hpan       c2        c2         si   
5         0.00000000    112.67000000    113.18550000 #  c2         c2        si         c2   
6         0.00000000    112.67000000    112.09770000 #  c2         c2        si          h   
7       -17.58020000    112.03550000    113.18550000 #  hpan       c2        si         c2   
8       -12.93410000    112.03550000    112.09770000 #  hpan       c2        si          h   
9         0.00000000    112.30000000    113.18550000 #  si         c2        si         c2   
10        0.00000000    112.30000000    112.09770000 #  si         c2        si          h   

EndBondTorsion Coeffs  # class2

1         0.24860000      0.24220000     -0.09250000      0.08140000      0.05910000      0.22190000      1.53000000      1.10100000 #  c2         c2        c2       hpan   
2         0.21300000      0.31200000      0.07770000      0.21300000      0.31200000      0.07770000      1.10100000      1.10100000 #  hpan       c2        c2       hpan   
3         0.00000000      0.00000000      0.00000000      0.00000000      0.00000000      0.00000000      1.53000000      1.89950000 #  c2         c2        c2         si   
4         0.00000000      0.00000000      0.00000000      0.00000000      0.00000000      0.00000000      1.10100000      1.89950000 #  hpan       c2        c2         si   
5         0.00000000      0.00000000      0.00000000      0.00000000      0.00000000      0.00000000      1.53000000      1.89950000 #  c2         c2        si         c2   
6         0.00000000      0.00000000      0.00000000      0.00000000      0.00000000      0.00000000      1.53000000      1.47830000 #  c2         c2        si          h   
7         0.00000000      0.00000000      0.00000000      0.00000000      0.00000000      0.00000000      1.10100000      1.89950000 #  hpan       c2        si         c2   
8         0.00000000      0.00000000      0.00000000      0.00000000      0.00000000      0.00000000      1.10100000      1.47830000 #  hpan       c2        si          h   
9         0.00000000      0.00000000      0.00000000      0.00000000      0.00000000      0.00000000      1.89950000      1.89950000 #  si         c2        si         c2   
10        0.00000000      0.00000000      0.00000000      0.00000000      0.00000000      0.00000000      1.89950000      1.47830000 #  si         c2        si          h   

MiddleBondTorsion Coeffs  # class2

1       -14.87900000     -3.65810000     -0.31380000      1.53000000 #  c2         c2        c2       hpan   
2       -14.26100000     -0.53220000     -0.48640000      1.53000000 #  hpan       c2        c2       hpan   
3         0.00000000      0.00000000      0.00000000      1.53000000 #  c2         c2        c2         si   
4         0.00000000      0.00000000      0.00000000      1.53000000 #  hpan       c2        c2         si   
5         0.00000000      0.00000000      0.00000000      1.89950000 #  c2         c2        si         c2   
6         0.00000000      0.00000000      0.00000000      1.89950000 #  c2         c2        si          h   
7         0.00000000      0.00000000      0.00000000      1.89950000 #  hpan       c2        si         c2   
8         0.00000000      0.00000000     -0.59060000      1.89950000 #  hpan       c2        si          h   
9         0.00000000      0.00000000      0.00000000      1.89950000 #  si         c2        si         c2   
10        0.00000000      0.00000000      0.00000000      1.89950000 #  si         c2        si          h   

BondBond13 Coeffs  # class2

1         0.00000000      1.53000000      1.10100000 #  c2         c2        c2       hpan   
2         0.00000000      1.10100000      1.10100000 #  hpan       c2        c2       hpan   
3         0.00000000      1.53000000      1.89950000 #  c2         c2        c2         si   
4         0.00000000      1.10100000      1.89950000 #  hpan       c2        c2         si   
5         0.00000000      1.53000000      1.89950000 #  c2         c2        si         c2   
6         0.00000000      1.53000000      1.47830000 #  c2         c2        si          h   
7         0.00000000      1.10100000      1.89950000 #  hpan       c2        si         c2   
8         0.00000000      1.10100000      1.47830000 #  hpan       c2        si          h   
9         0.00000000      1.89950000      1.89950000 #  si         c2        si         c2   
10        0.00000000      1.89950000      1.47830000 #  si         c2        si          h   

AngleTorsion Coeffs  # class2

1        -0.24540000      0.00000000     -0.11360000      0.31130000      0.45160000     -0.19880000    112.67000000    110.77000000 #  c2         c2        c2       hpan   
2        -0.80850000      0.55690000     -0.24660000     -0.80850000      0.55690000     -0.24660000    110.77000000    110.77000000 #  hpan       c2        c2       hpan   
3         0.00000000      0.00000000      0.00000000      0.00000000      0.00000000      0.00000000    112.67000000    112.67000000 #  c2         c2        c2         si   
4         0.00000000      0.00000000      0.00000000      0.00000000      0.00000000      0.00000000    110.77000000    112.67000000 #  hpan       c2        c2         si   
5         0.00000000      0.00000000      0.00000000      0.00000000      0.00000000      0.00000000    112.67000000    113.18550000 #  c2         c2        si         c2   
6         0.00000000      0.00000000      0.00000000      0.00000000      0.00000000      0.00000000    112.67000000    112.09770000 #  c2         c2        si          h   
7         0.00000000      0.00000000      0.33820000      0.00000000      0.00000000      0.42720000    112.03550000    113.18550000 #  hpan       c2        si         c2   
8         0.00000000      0.00000000      0.00000000      0.00000000      0.00000000     -0.14230000    112.03550000    112.09770000 #  hpan       c2        si          h   
9         0.00000000      0.00000000      0.00000000      0.00000000      0.00000000      0.00000000    112.30000000    113.18550000 #  si         c2        si         c2   
10        0.00000000      0.00000000      0.00000000      0.00000000      0.00000000      0.00000000    112.30000000    112.09770000 #  si         c2        si          h   

AngleAngle Coeffs  # class2

1        -1.31990000     -1.31990000      0.11840000    112.67000000    110.77000000    110.77000000 #  c2         c2        c2       hpan     nb!=3   
2         0.27380000     -0.48250000      0.27380000    110.77000000    110.77000000    107.66000000 #  c2         c2       hpan      hpan     nb!=3   
3         0.00000000      0.00000000      0.00000000    110.77000000    112.03550000    112.67000000 #  c2         c2       hpan       si      nb!=3   
4         0.00000000      0.00000000      0.00000000    113.18550000    113.18550000    113.18550000 #  c2         si        c2        c2      nb!=3   
5         3.38270000      3.38270000      2.79630000    113.18550000    112.09770000    112.09770000 #  c2         si        c2        h       nb!=3   
6         4.45590000      4.68090000      4.45590000    112.09770000    112.09770000    108.60510000 #  c2         si        h         h       nb!=3   
7         0.00000000      0.00000000      2.20500000    107.66000000    112.03550000    112.03550000 #  hpan       c2       hpan       si      nb!=3   
8         0.00000000      0.00000000      0.00000000    112.03550000    112.30000000    112.03550000 #  hpan       c2        si        si      nb!=3   

Atoms # full

 1  1  1   -0.241000   -0.744951220    -1.737424390    -0.312004878      0    0    0 #  c2/C
 2  1  1   -0.106000    0.573948780    -0.975924390    -0.312004878      0    0    0 #  c2/C
 3  1  1   -0.241000    1.732048780    -1.965024390    -0.312004878      0    0    0 #  c2/C
 4  1  4    0.531000    3.360148780    -1.024924390    -0.312004878      0    0    0 #  si/Si
 5  1  1   -0.376000    3.460548780     0.056175610     1.222695122      0    0    0 #  c2/C
 6  1  4    0.135000    3.626848780     1.857675610     0.711495122      0    0    0 #  si/Si
 7  1  4    0.135000    1.276248780     3.529475610    -3.383704878      0    0    0 #  si/Si
 8  1  1   -0.376000   -0.350851220     2.587875610    -3.382604878      0    0    0 #  c2/C
 9  1  1   -0.376000   -2.076351220     0.564875610    -1.846804878      0    0    0 #  c2/C
10  1  1   -0.376000   -2.074151220     0.564675610     1.222695122      0    0    0 #  c2/C
11  1  4    0.522000   -3.634751220     0.345675610     2.247895122      0    0    0 #  si/Si
12  1  1   -0.376000   -3.534251220     1.426875610     3.782595122      0    0    0 #  c2/C
13  1  4    0.522000   -0.449151220     1.506575610    -1.847904878      0    0    0 #  si/Si
14  1  4    0.135000   -5.094851220     1.207775610     4.807795122      0    0    0 #  si/Si
15  1  1   -0.376000    4.788548780    -2.247324390    -0.310904878      0    0    0 #  c2/C
16  1  4    0.135000    5.841948780    -1.983024390    -1.845404878      0    0    0 #  si/Si
17  1  4    0.531000   -2.174551220    -0.516424390    -0.312004878      0    0    0 #  si/Si
18  1  3    0.053000   -0.803751220    -2.376624390    -1.221304878      0    0    0 #  hpan/H
19  1  3    0.053000   -0.803751220    -2.377224390     0.596795122      0    0    0 #  hpan/H
20  1  3    0.053000    0.632648780    -0.336724390     0.597195122      0    0    0 #  hpan/H
21  1  3    0.053000    0.632748780    -0.336024390    -1.220804878      0    0    0 #  hpan/H
22  1  3    0.053000    1.673348780    -2.604224390    -1.221304878      0    0    0 #  hpan/H
23  1  3    0.053000    1.673248780    -2.604824390     0.596795122      0    0    0 #  hpan/H
24  1  2   -0.126000    3.438848780    -0.169024390    -1.527904878      0    0    0 #  h/H
25  1  3    0.053000    2.535748780    -0.073224390     1.828195122      0    0    0 #  hpan/H
26  1  3    0.053000    4.346048780    -0.240724390     1.828195122      0    0    0 #  hpan/H
27  1  3    0.053000   -1.197251220     3.310675610    -3.381304878      0    0    0 #  hpan/H
28  1  3    0.053000   -0.409651220     1.948075610    -4.291404878      0    0    0 #  hpan/H
29  1  3    0.053000   -2.922651220     1.287675610    -1.845404878      0    0    0 #  hpan/H
30  1  3    0.053000   -2.135151220    -0.074924390    -2.755604878      0    0    0 #  hpan/H
31  1  3    0.053000   -1.188551220     0.267475610     1.827895122      0    0    0 #  hpan/H
32  1  3    0.053000   -1.976351220     1.631075610     0.919295122      0    0    0 #  hpan/H
33  1  2   -0.126000   -4.819451220     0.743275610     1.438295122      0    0    0 #  h/H
34  1  2   -0.126000   -3.765551220    -1.080924390     2.653795122      0    0    0 #  h/H
35  1  3    0.053000   -2.648751220     1.129675610     4.387795122      0    0    0 #  hpan/H
36  1  3    0.053000   -3.436451220     2.493175610     3.479195122      0    0    0 #  hpan/H
37  1  2   -0.126000    0.683048780     0.539475610    -1.849604878      0    0    0 #  h/H
38  1  2   -0.126000   -0.370451220     2.362475610    -0.632004878      0    0    0 #  h/H
39  1  3    0.053000    5.411248780    -2.088624390     0.597795122      0    0    0 #  hpan/H
40  1  3    0.053000    4.387948780    -3.285724390    -0.310404878      0    0    0 #  hpan/H
41  1  2   -0.126000   -3.463551220    -1.261824390    -0.312004878      0    0    0 #  h/H

Bonds

  1   1     1     2  
  2   3     1    17  
  3   2     1    18  
  4   2     1    19  
  5   1     2     3  
  6   2     2    20  
  7   2     2    21  
  8   3     3     4  
  9   2     3    22  
 10   2     3    23  
 11   3     5     4  
 12   3    15     4  
 13   4    24     4  
 14   3     5     6  
 15   2     5    25  
 16   2     5    26  
 17   3     8     7  
 18   3     8    13  
 19   2     8    27  
 20   2     8    28  
 21   3     9    13  
 22   3     9    17  
 23   2     9    29  
 24   2     9    30  
 25   3    10    11  
 26   3    10    17  
 27   2    10    31  
 28   2    10    32  
 29   3    12    11  
 30   4    33    11  
 31   4    34    11  
 32   3    12    14  
 33   2    12    35  
 34   2    12    36  
 35   4    37    13  
 36   4    38    13  
 37   3    15    16  
 38   2    15    39  
 39   2    15    40  
 40   4    41    17  

Angles

  1   1     1     2     3  
  2   2     1     2    20  
  3   2     1     2    21  
  4   4     1    17     9  
  5   4     1    17    10  
  6   5     1    17    41  
  7   3     2     1    17  
  8   2     2     1    18  
  9   2     2     1    19  
 10   3     2     3     4  
 11   2     2     3    22  
 12   2     2     3    23  
 13   2     3     2    20  
 14   2     3     2    21  
 15   4     3     4     5  
 16   4     3     4    15  
 17   5     3     4    24  
 18   8    22     3     4  
 19   8    23     3     4  
 20   9     4     5     6  
 21   8    25     5     4  
 22   8    26     5     4  
 23   9     4    15    16  
 24   8    39    15     4  
 25   8    40    15     4  
 26   4     5     4    15  
 27   5     5     4    24  
 28   8    25     5     6  
 29   8    26     5     6  
 30   9     7     8    13  
 31   8    27     8     7  
 32   8    28     8     7  
 33   4     8    13     9  
 34   5     8    13    37  
 35   5     8    13    38  
 36   5     9    13    37  
 37   5     9    13    38  
 38   4     9    17    10  
 39   5     9    17    41  
 40   4    10    11    12  
 41   5    10    11    33  
 42   5    10    11    34  
 43   5    10    17    41  
 44   9    11    10    17  
 45   8    31    10    11  
 46   8    32    10    11  
 47   9    11    12    14  
 48   8    35    12    11  
 49   8    36    12    11  
 50   5    12    11    33  
 51   5    12    11    34  
 52   8    27     8    13  
 53   8    28     8    13  
 54   9    13     9    17  
 55   8    29     9    13  
 56   8    30     9    13  
 57   8    35    12    14  
 58   8    36    12    14  
 59   5    15     4    24  
 60   8    39    15    16  
 61   8    40    15    16  
 62   8    18     1    17  
 63   8    19     1    17  
 64   8    29     9    17  
 65   8    30     9    17  
 66   8    31    10    17  
 67   8    32    10    17  
 68   7    18     1    19  
 69   7    20     2    21  
 70   7    22     3    23  
 71   7    25     5    26  
 72   7    27     8    28  
 73   7    29     9    30  
 74   7    31    10    32  
 75   6    33    11    34  
 76   7    35    12    36  
 77   6    37    13    38  
 78   7    39    15    40  

Dihedrals

  1   3     1     2     3     4  
  2   1     1     2     3    22  
  3   1     1     2     3    23  
  4   9    13     9    17     1  
  5   7    29     9    17     1  
  6   7    30     9    17     1  
  7   9    11    10    17     1  
  8   7    31    10    17     1  
  9   7    32    10    17     1  
 10   5     2     1    17     9  
 11   5     2     1    17    10  
 12   6     2     1    17    41  
 13   5     2     3     4     5  
 14   5     2     3     4    15  
 15   6     2     3     4    24  
 16   3     3     2     1    17  
 17   1     3     2     1    18  
 18   1     3     2     1    19  
 19   9     6     5     4     3  
 20   7    25     5     4     3  
 21   7    26     5     4     3  
 22   9    16    15     4     3  
 23   7    39    15     4     3  
 24   7    40    15     4     3  
 25   4    20     2     3     4  
 26   4    21     2     3     4  
 27   7    22     3     4     5  
 28   7    23     3     4     5  
 29   9    16    15     4     5  
 30   7    39    15     4     5  
 31   7    40    15     4     5  
 32   9     6     5     4    15  
 33   10    6     5     4    24  
 34   9     7     8    13     9  
 35   10    7     8    13    37  
 36   10    7     8    13    38  
 37   9    17     9    13     8  
 38   7    29     9    13     8  
 39   7    30     9    13     8  
 40   7    27     8    13     9  
 41   7    28     8    13     9  
 42   7    18     1    17     9  
 43   7    19     1    17     9  
 44   9    11    10    17     9  
 45   7    31    10    17     9  
 46   7    32    10    17     9  
 47   9    14    12    11    10  
 48   7    35    12    11    10  
 49   7    36    12    11    10  
 50   7    18     1    17    10  
 51   7    19     1    17    10  
 52   9    13     9    17    10  
 53   7    29     9    17    10  
 54   7    30     9    17    10  
 55   10   11    10    17    41  
 56   9    17    10    11    12  
 57   7    31    10    11    12  
 58   7    32    10    11    12  
 59   10   13     9    17    41  
 60   10   14    12    11    33  
 61   10   14    12    11    34  
 62   7    22     3     4    15  
 63   7    23     3     4    15  
 64   7    25     5     4    15  
 65   7    26     5     4    15  
 66   10   16    15     4    24  
 67   4    20     2     1    17  
 68   4    21     2     1    17  
 69   10   17     9    13    37  
 70   10   17     9    13    38  
 71   10   17    10    11    33  
 72   10   17    10    11    34  
 73   2    18     1     2    20  
 74   2    18     1     2    21  
 75   8    18     1    17    41  
 76   2    19     1     2    20  
 77   2    19     1     2    21  
 78   8    19     1    17    41  
 79   2    20     2     3    22  
 80   2    20     2     3    23  
 81   2    21     2     3    22  
 82   2    21     2     3    23  
 83   8    22     3     4    24  
 84   8    23     3     4    24  
 85   8    25     5     4    24  
 86   8    26     5     4    24  
 87   8    39    15     4    24  
 88   8    40    15     4    24  
 89   8    27     8    13    37  
 90   8    27     8    13    38  
 91   8    28     8    13    37  
 92   8    28     8    13    38  
 93   8    29     9    13    37  
 94   8    29     9    13    38  
 95   8    29     9    17    41  
 96   8    30     9    13    37  
 97   8    30     9    13    38  
 98   8    30     9    17    41  
 99   8    31    10    11    33  
 100  8    31    10    11    34  
 101  8    31    10    17    41  
 102  8    32    10    11    33  
 103  8    32    10    11    34  
 104  8    32    10    17    41  
 105  8    35    12    11    33  
 106  8    36    12    11    33  
 107  8    35    12    11    34  
 108  8    36    12    11    34  

Impropers

  1   1     1     2     3    20  
  2   1     1     2     3    21  
  3   2     1     2    20    21  
  4   4     1    17     9    10  
  5   5     1    17     9    41  
  6   5     1    17    10    41  
  7   3     2     1    18    17  
  8   3     2     1    19    17  
  9   2     2     1    18    19  
 10   3     2     3    22     4  
 11   3     2     3    23     4  
 12   2     2     3    22    23  
 13   2     3     2    20    21  
 14   4     3     4     5    15  
 15   5     3     4     5    24  
 16   5     3     4    15    24  
 17   7    22     3    23     4  
 18   8    25     5     4     6  
 19   8    26     5     4     6  
 20   7    25     5    26     4  
 21   8    39    15     4    16  
 22   8    40    15     4    16  
 23   7    39    15    40     4  
 24   5     5     4    15    24  
 25   7    25     5    26     6  
 26   8    27     8     7    13  
 27   8    28     8     7    13  
 28   7    27     8    28     7  
 29   5     8    13     9    37  
 30   5     8    13     9    38  
 31   6     8    13    37    38  
 32   6     9    13    37    38  
 33   5     9    17    10    41  
 34   5    10    11    12    33  
 35   5    10    11    12    34  
 36   6    10    11    33    34  
 37   8    31    10    11    17  
 38   8    32    10    11    17  
 39   7    31    10    32    11  
 40   8    35    12    11    14  
 41   8    36    12    11    14  
 42   7    35    12    36    11  
 43   6    12    11    33    34  
 44   7    27     8    28    13  
 45   8    29     9    13    17  
 46   8    30     9    13    17  
 47   7    29     9    30    13  
 48   7    35    12    36    14  
 49   7    39    15    40    16  
 50   7    18     1    19    17  
 51   7    29     9    30    17  
 52   7    31    10    32    17  
