HEADER,  post2a.mol  read w/ mol2lmp > atom_typing v1.0 / 16 Jan 2023 w/PCFF-IFF atom-types > all2lmp: v1.4 / 9 Jan 2023  Class: 2

35 atoms
33 bonds
60 angles
82 dihedrals
38 impropers

6 atom types
8 bond types
13 angle types
12 dihedral types
9 improper types

-4.267791429 7.014408571 xlo xhi
-5.968142857 3.974257143 ylo yhi
-4.981425714 3.082374286 zlo zhi

Masses # class2

1   12.01115000  #  c2   
2   12.01115000  #  c=   
3   12.01115000  #  c=1  
4    1.00797000  #  h    
5    1.00797000  #  hpan 
6   28.08600000  #  si   

Pair Coeffs  # lj/class2/coul/long

1         0.05400000      4.01000000 #  c2   
2         0.06400000      3.90000000 #  c=   
3         0.06400000      4.01000000 #  c=1  
4         0.02000000      2.99500000 #  h    
5         0.02000000      2.30000000 #  hpan 
6         0.19000000      4.45000000 #  si   

Bond Coeffs  # class2

1         1.50600000    312.35170000   -582.18610000    339.89710000 #  c2         c=1   
2         1.10100000    345.00000000   -691.89000000    844.60000000 #  c2        hpan   
3         1.89950000    189.65360000   -279.42100000    307.51350000 #  c2          si   
4         1.34000000    543.99000000  -1238.20250000   1644.02820000 #  c=         c=1   
5         1.08830000    365.76790000   -725.54040000    781.66210000 #  c=        hpan   
6         1.08830000    365.76790000   -725.54040000    781.66210000 #  c=1       hpan   
7         0.74140000    414.00000000      0.00000000      0.00000000 #  h            h   
8         1.47830000    202.77980000   -305.36030000    280.26850000 #  h           si   

Angle Coeffs  # class2

1       126.26000000     43.82500000    -27.72660000      1.00560000 #  c2        c=1         c=   
2       117.27000000     30.09440000     -8.08260000     -8.67810000 #  c2        c=1       hpan   
3       113.18550000     36.20690000    -20.39390000     20.01720000 #  c2         si         c2   
4       112.09770000     36.48320000    -12.80940000      0.00000000 #  c2         si          h   
5       124.88000000     35.27660000    -17.77400000     -1.62150000 #  c=        c=1       hpan   
6       110.06000000     41.27840000    -14.29630000      5.22290000 #  c=1        c2       hpan   
7       112.30000000     34.60000000      0.00000000      0.00000000 #  c=1        c2         si   
8       124.88000000     35.27660000    -17.77400000     -1.62150000 #  c=1        c=       hpan   
9       108.60510000     32.54150000     -8.31640000      0.00000000 #  h          si          h   
10      107.66000000     39.64100000    -12.92100000     -2.43180000 #  hpan       c2       hpan   
11      112.03550000     28.77210000    -13.95230000      0.00000000 #  hpan       c2         si   
12      115.49000000     29.63630000    -12.48530000     -6.22180000 #  hpan       c=       hpan   
13      112.30000000     34.60000000      0.00000000      0.00000000 #  si         c2         si   

Dihedral Coeffs  # class2

1        -0.11430000      0.00000000      0.00000000      0.00000000     -0.13490000      0.00000000 #  hpan       c2       c=1       hpan   
2         0.00000000      0.00000000      0.00000000      0.00000000      0.11110000      0.00000000 #  c=1        c2        si          h   
3         0.00000000      0.00000000      4.89740000      0.00000000      0.00000000      0.00000000 #  hpan       c=       c=1       hpan   
4         0.11430000      0.00000000      0.00000000      0.00000000      0.18540000      0.00000000 #  hpan       c2       c=1         c=   
5         0.00000000      0.00000000      0.00000000      0.00000000      0.21100000      0.00000000 #  c=        c=1        c2         si   
6         0.00000000      0.00000000      0.00000000      0.00000000      0.21100000      0.00000000 #  hpan      c=1        c2         si   
7         0.00000000      0.00000000      5.20970000      0.00000000      0.00000000      0.00000000 #  hpan       c=       c=1         c2   
8         0.00000000      0.00000000      0.00000000      0.00000000      0.11110000      0.00000000 #  c=1        c2        si         c2   
9         0.00000000      0.00000000      0.00000000      0.00000000     -0.06570000      0.00000000 #  hpan       c2        si          h   
10        0.00000000      0.00000000      0.00000000      0.00000000     -0.06570000      0.00000000 #  hpan       c2        si         c2   
11        0.00000000      0.00000000      0.00000000      0.00000000      0.11110000      0.00000000 #  si         c2        si          h   
12        0.00000000      0.00000000      0.00000000      0.00000000      0.11110000      0.00000000 #  si         c2        si         c2   

Improper Coeffs  # class2

1         2.07650000      0.00000000 #  c2        c=1        c=       hpan     nb==3   
2         2.85610000      0.00000000 #  c=1        c=       hpan      hpan     nb==3   
3         0.00000000      0.00000000 #  c2         si        c2        c2      nb!=3   
4         0.00000000      0.00000000 #  c2         si        c2        h       nb!=3   
5         0.00000000      0.00000000 #  c2         si        h         h       nb!=3   
6         0.00000000      0.00000000 #  c=1        c2       hpan      hpan     nb!=3   
7         0.00000000      0.00000000 #  c=1        c2       hpan       si      nb!=3   
8         0.00000000      0.00000000 #  hpan       c2       hpan       si      nb!=3   
9         0.00000000      0.00000000 #  hpan       c2        si        si      nb!=3   

BondBond Coeffs  # class2

1        17.79130000      1.50600000      1.34000000 #  c2        c=1         c=   
2         3.43940000      1.50600000      1.08830000 #  c2        c=1       hpan   
3         3.74190000      1.89950000      1.89950000 #  c2         si         c2   
4         3.92640000      1.89950000      1.47830000 #  c2         si          h   
5        10.10470000      1.34000000      1.08830000 #  c=        c=1       hpan   
6         9.99220000      1.50600000      1.10100000 #  c=1        c2       hpan   
7         0.00000000      1.50600000      1.89950000 #  c=1        c2         si   
8        10.10470000      1.34000000      1.08830000 #  c=1        c=       hpan   
9         4.64080000      1.47830000      1.47830000 #  h          si          h   
10        5.33160000      1.10100000      1.10100000 #  hpan       c2       hpan   
11        1.65610000      1.10100000      1.89950000 #  hpan       c2         si   
12        4.85060000      1.08830000      1.08830000 #  hpan       c=       hpan   
13        0.00000000      1.89950000      1.89950000 #  si         c2         si   

BondAngle Coeffs  # class2

1        31.58850000     24.22520000      1.50600000      1.34000000 #  c2        c=1         c=   
2        17.64520000     15.34920000      1.50600000      1.08830000 #  c2        c=1       hpan   
3        18.58050000     18.58050000      1.89950000      1.89950000 #  c2         si         c2   
4        13.39610000      7.41040000      1.89950000      1.47830000 #  c2         si          h   
5        23.35880000     19.05920000      1.34000000      1.08830000 #  c=        c=1       hpan   
6        20.87670000     14.27410000      1.50600000      1.10100000 #  c=1        c2       hpan   
7         0.00000000      0.00000000      1.50600000      1.89950000 #  c=1        c2         si   
8        23.35880000     19.05920000      1.34000000      1.08830000 #  c=1        c=       hpan   
9         9.34670000      9.34670000      1.47830000      1.47830000 #  h          si          h   
10       18.10300000     18.10300000      1.10100000      1.10100000 #  hpan       c2       hpan   
11       16.69080000     18.27640000      1.10100000      1.89950000 #  hpan       c2         si   
12       17.97950000     17.97950000      1.08830000      1.08830000 #  hpan       c=       hpan   
13        0.00000000      0.00000000      1.89950000      1.89950000 #  si         c2         si   

AngleAngleTorsion Coeffs  # class2

1       -10.95120000    110.06000000    117.27000000 #  hpan       c2       c=1       hpan   
2         0.00000000    112.30000000    112.09770000 #  c=1        c2        si          h   
3        -7.00580000    124.88000000    124.88000000 #  hpan       c=       c=1       hpan   
4       -13.68260000    110.06000000    126.26000000 #  hpan       c2       c=1         c=   
5         0.00000000    126.26000000    112.30000000 #  c=        c=1        c2         si   
6         0.00000000    117.27000000    112.30000000 #  hpan      c=1        c2         si   
7        -7.69120000    124.88000000    126.26000000 #  hpan       c=       c=1         c2   
8         0.00000000    112.30000000    113.18550000 #  c=1        c2        si         c2   
9       -12.93410000    112.03550000    112.09770000 #  hpan       c2        si          h   
10      -17.58020000    112.03550000    113.18550000 #  hpan       c2        si         c2   
11        0.00000000    112.30000000    112.09770000 #  si         c2        si          h   
12        0.00000000    112.30000000    113.18550000 #  si         c2        si         c2   

EndBondTorsion Coeffs  # class2

1         0.22120000      0.00000000      0.09150000      0.59340000      0.00000000      0.04240000      1.10100000      1.08830000 #  hpan       c2       c=1       hpan   
2         0.00000000      0.00000000      0.00000000      0.00000000      0.00000000      0.00000000      1.50600000      1.47830000 #  c=1        c2        si          h   
3         0.71290000      0.51610000      0.00000000      0.71290000      0.51610000      0.00000000      1.08830000      1.08830000 #  hpan       c=       c=1       hpan   
4         1.97870000      0.00000000     -0.18050000      0.85660000      0.00000000      0.08110000      1.10100000      1.34000000 #  hpan       c2       c=1         c=   
5         0.00000000      0.00000000      0.00000000      0.00000000      0.00000000      0.00000000      1.34000000      1.89950000 #  c=        c=1        c2         si   
6         0.00000000      0.00000000      0.00000000      0.00000000      0.00000000      0.00000000      1.08830000      1.89950000 #  hpan      c=1        c2         si   
7         0.54060000     -0.16110000      0.00000000     -0.22010000      0.67700000      0.00000000      1.08830000      1.50600000 #  hpan       c=       c=1         c2   
8         0.00000000      0.00000000      0.00000000      0.00000000      0.00000000      0.00000000      1.50600000      1.89950000 #  c=1        c2        si         c2   
9         0.00000000      0.00000000      0.00000000      0.00000000      0.00000000      0.00000000      1.10100000      1.47830000 #  hpan       c2        si          h   
10        0.00000000      0.00000000      0.00000000      0.00000000      0.00000000      0.00000000      1.10100000      1.89950000 #  hpan       c2        si         c2   
11        0.00000000      0.00000000      0.00000000      0.00000000      0.00000000      0.00000000      1.89950000      1.47830000 #  si         c2        si          h   
12        0.00000000      0.00000000      0.00000000      0.00000000      0.00000000      0.00000000      1.89950000      1.89950000 #  si         c2        si         c2   

MiddleBondTorsion Coeffs  # class2

1         1.87300000      0.00000000     -0.37020000      1.50600000 #  hpan       c2       c=1       hpan   
2         0.00000000      0.00000000      0.00000000      1.89950000 #  c=1        c2        si          h   
3         0.85580000      6.39110000      0.00000000      1.34000000 #  hpan       c=       c=1       hpan   
4        -1.57270000      0.00000000      0.65650000      1.50600000 #  hpan       c2       c=1         c=   
5         0.00000000      0.00000000      0.00000000      1.50600000 #  c=        c=1        c2         si   
6         0.00000000      0.00000000      0.00000000      1.50600000 #  hpan      c=1        c2         si   
7         1.12200000      6.06690000      0.00000000      1.34000000 #  hpan       c=       c=1         c2   
8         0.00000000      0.00000000      0.00000000      1.89950000 #  c=1        c2        si         c2   
9         0.00000000      0.00000000     -0.59060000      1.89950000 #  hpan       c2        si          h   
10        0.00000000      0.00000000      0.00000000      1.89950000 #  hpan       c2        si         c2   
11        0.00000000      0.00000000      0.00000000      1.89950000 #  si         c2        si          h   
12        0.00000000      0.00000000      0.00000000      1.89950000 #  si         c2        si         c2   

BondBond13 Coeffs  # class2

1         0.00000000      1.10100000      1.08830000 #  hpan       c2       c=1       hpan   
2         0.00000000      1.50600000      1.47830000 #  c=1        c2        si          h   
3         0.00000000      1.08830000      1.08830000 #  hpan       c=       c=1       hpan   
4         0.00000000      1.10100000      1.34000000 #  hpan       c2       c=1         c=   
5         0.00000000      1.34000000      1.89950000 #  c=        c=1        c2         si   
6         0.00000000      1.08830000      1.89950000 #  hpan      c=1        c2         si   
7         0.00000000      1.08830000      1.50600000 #  hpan       c=       c=1         c2   
8         0.00000000      1.50600000      1.89950000 #  c=1        c2        si         c2   
9         0.00000000      1.10100000      1.47830000 #  hpan       c2        si          h   
10        0.00000000      1.10100000      1.89950000 #  hpan       c2        si         c2   
11        0.00000000      1.89950000      1.47830000 #  si         c2        si          h   
12        0.00000000      1.89950000      1.89950000 #  si         c2        si         c2   

AngleTorsion Coeffs  # class2

1         1.90610000      0.00000000      0.00000000     -0.06770000      0.00000000      0.00000000    110.06000000    117.27000000 #  hpan       c2       c=1       hpan   
2         0.00000000      0.00000000      0.00000000      0.00000000      0.00000000      0.00000000    112.30000000    112.09770000 #  c=1        c2        si          h   
3        -1.89110000      3.25400000      0.00000000     -1.89110000      3.25400000      0.00000000    124.88000000    124.88000000 #  hpan       c=       c=1       hpan   
4         1.59820000      0.00000000      0.00000000     -1.88730000      0.00000000      0.00000000    110.06000000    126.26000000 #  hpan       c2       c=1         c=   
5         0.00000000      0.00000000      0.00000000      0.00000000      0.00000000      0.00000000    126.26000000    112.30000000 #  c=        c=1        c2         si   
6         0.00000000      0.00000000      0.00000000      0.00000000      0.00000000      0.00000000    117.27000000    112.30000000 #  hpan      c=1        c2         si   
7        -1.51760000      3.71120000      0.00000000     -5.40820000      1.47310000      0.00000000    124.88000000    126.26000000 #  hpan       c=       c=1         c2   
8         0.00000000      0.00000000      0.00000000      0.00000000      0.00000000      0.00000000    112.30000000    113.18550000 #  c=1        c2        si         c2   
9         0.00000000      0.00000000      0.00000000      0.00000000      0.00000000     -0.14230000    112.03550000    112.09770000 #  hpan       c2        si          h   
10        0.00000000      0.00000000      0.33820000      0.00000000      0.00000000      0.42720000    112.03550000    113.18550000 #  hpan       c2        si         c2   
11        0.00000000      0.00000000      0.00000000      0.00000000      0.00000000      0.00000000    112.30000000    112.09770000 #  si         c2        si          h   
12        0.00000000      0.00000000      0.00000000      0.00000000      0.00000000      0.00000000    112.30000000    113.18550000 #  si         c2        si         c2   

AngleAngle Coeffs  # class2

1         0.00000000      0.00000000      0.00000000    126.26000000    124.88000000    117.27000000 #  c2        c=1        c=       hpan     nb==3   
2         0.00000000      0.00000000      0.00000000    124.88000000    115.49000000    124.88000000 #  c=1        c=       hpan      hpan     nb==3   
3         0.00000000      0.00000000      0.00000000    113.18550000    113.18550000    113.18550000 #  c2         si        c2        c2      nb!=3   
4         3.38270000      3.38270000      2.79630000    113.18550000    112.09770000    112.09770000 #  c2         si        c2        h       nb!=3   
5         4.45590000      4.68090000      4.45590000    112.09770000    112.09770000    108.60510000 #  c2         si        h         h       nb!=3   
6        -0.11410000     -8.24640000     -0.11410000    110.06000000    110.06000000    107.66000000 #  c=1        c2       hpan      hpan     nb!=3   
7         0.00000000      0.00000000      0.00000000    110.06000000    112.03550000    112.30000000 #  c=1        c2       hpan       si      nb!=3   
8         0.00000000      0.00000000      2.20500000    107.66000000    112.03550000    112.03550000 #  hpan       c2       hpan       si      nb!=3   
9         0.00000000      0.00000000      0.00000000    112.03550000    112.30000000    112.03550000 #  hpan       c2        si        si      nb!=3   

Atoms # full

 1  1  3   -0.126800   -1.907291429     2.624257143     1.923574286      0    0    0 #  c=1/C
 2  1  1   -0.241000   -0.610791429     1.875757143     1.923574286      0    0    0 #  c2/C
 3  1  6    0.531000   -0.510391429     0.794657143     0.388774286      0    0    0 #  si/Si
 4  1  1   -0.376000   -0.609591429     1.874357143    -1.147025714      0    0    0 #  c2/C
 5  1  6    0.522000   -2.104191429     1.372757143    -2.171325714      0    0    0 #  si/Si
 6  1  1   -0.376000   -2.203391429     2.452457143    -3.707125714      0    0    0 #  c2/C
 7  1  6    0.135000   -3.697891429     1.950957143    -4.731425714      0    0    0 #  si/Si
 8  1  1   -0.135000    3.695408571    -5.718142857     0.393474286      0    0    0 #  c2/C
 9  1  1   -0.376000    2.407008571    -2.930942857     0.391674286      0    0    0 #  c2/C
10  1  6    0.522000    0.777908571    -1.992642857     0.390574286      0    0    0 #  si/Si
11  1  6    0.522000    2.066308571    -4.779842857     0.392374286      0    0    0 #  si/Si
12  1  2   -0.253600   -3.065091429     1.955757143     1.923574286      0    0    0 #  c=/C
13  1  1   -0.376000    1.118708571    -0.143742857     0.389874286      0    0    0 #  c2/C
14  1  5    0.126800   -1.907191429     3.724257143     1.923574286      0    0    0 #  hpan/H
15  1  5    0.053000    0.234808571     2.599457143     1.922874286      0    0    0 #  hpan/H
16  1  5    0.053000   -0.551991429     1.235957143     2.832374286      0    0    0 #  hpan/H
17  1  4   -0.126000   -1.641991429    -0.173142857     0.388774286      0    0    0 #  h/H
18  1  5    0.053000   -0.708891429     2.940757143    -0.844425714      0    0    0 #  hpan/H
19  1  5    0.053000    0.315308571     1.744057143    -1.752225714      0    0    0 #  hpan/H
20  1  4   -0.126000   -1.971291429    -0.053942857    -2.576225714      0    0    0 #  h/H
21  1  4   -0.126000   -3.341591429     1.546957143    -1.361625714      0    0    0 #  h/H
22  1  5    0.053000   -2.302691429     3.518957143    -3.404425714      0    0    0 #  hpan/H
23  1  5    0.053000   -1.278391429     2.322257143    -4.312325714      0    0    0 #  hpan/H
24  1  5    0.053000    2.989308571    -2.661242857     1.301074286      0    0    0 #  hpan/H
25  1  5    0.053000    2.990608571    -2.661842857    -0.517025714      0    0    0 #  hpan/H
26  1  4   -0.126000   -0.001091429    -2.353442857    -0.825925714      0    0    0 #  h/H
27  1  4   -0.126000   -0.002791429    -2.352742857     1.606274286      0    0    0 #  h/H
28  1  4   -0.126000    1.287308571    -5.140742857    -0.824125714      0    0    0 #  h/H
29  1  4   -0.126000    1.285508571    -5.139942857     1.608074286      0    0    0 #  h/H
30  1  5    0.126800   -4.017791429     2.505757143     1.923574286      0    0    0 #  hpan/H
31  1  5    0.126800   -3.065191429     0.855757143     1.923574286      0    0    0 #  hpan/H
32  1  5    0.053000    1.701008571     0.126057143     1.299274286      0    0    0 #  hpan/H
33  1  5    0.053000    1.702308571     0.125457143    -0.518825714      0    0    0 #  hpan/H
34  2  4    0.000000    6.764408571    -1.193842857     1.923574286      0    0    0 #  h/H
35  2  4    0.000000    6.163608571    -0.850442857     1.923574286      0    0    0 #  h/H

Bonds

  1   1     2     1  
  2   4    12     1  
  3   6     1    14  
  4   3     2     3  
  5   2     2    15  
  6   2     2    16  
  7   3     4     3  
  8   3    13     3  
  9   8    17     3  
 10   3     4     5  
 11   2     4    18  
 12   2     4    19  
 13   3     6     5  
 14   8    20     5  
 15   8    21     5  
 16   3     6     7  
 17   2     6    22  
 18   2     6    23  
 19   3     8    11  
 20   3     9    10  
 21   3     9    11  
 22   2     9    24  
 23   2     9    25  
 24   3    13    10  
 25   8    26    10  
 26   8    27    10  
 27   8    28    11  
 28   8    29    11  
 29   5    12    30  
 30   5    12    31  
 31   2    13    32  
 32   2    13    33  
 33   7    34    35  

Angles

  1   7     1     2     3  
  2   6     1     2    15  
  3   6     1     2    16  
  4   8     1    12    30  
  5   8     1    12    31  
  6   1     2     1    12  
  7   2     2     1    14  
  8   3     2     3     4  
  9   3     2     3    13  
 10   4     2     3    17  
 11   11   15     2     3  
 12   11   16     2     3  
 13   13    3     4     5  
 14   11   18     4     3  
 15   11   19     4     3  
 16   13    3    13    10  
 17   11   32    13     3  
 18   11   33    13     3  
 19   3     4     3    13  
 20   4     4     3    17  
 21   3     4     5     6  
 22   4     4     5    20  
 23   4     4     5    21  
 24   11   18     4     5  
 25   11   19     4     5  
 26   13    5     6     7  
 27   11   22     6     5  
 28   11   23     6     5  
 29   4     6     5    20  
 30   4     6     5    21  
 31   11   22     6     7  
 32   11   23     6     7  
 33   3     8    11     9  
 34   4     8    11    28  
 35   4     8    11    29  
 36   3     9    10    13  
 37   4     9    10    26  
 38   4     9    10    27  
 39   4     9    11    28  
 40   4     9    11    29  
 41   13   10     9    11  
 42   11   24     9    10  
 43   11   25     9    10  
 44   11   32    13    10  
 45   11   33    13    10  
 46   11   24     9    11  
 47   11   25     9    11  
 48   5    12     1    14  
 49   4    13     3    17  
 50   4    13    10    26  
 51   4    13    10    27  
 52   10   15     2    16  
 53   10   18     4    19  
 54   9    20     5    21  
 55   10   22     6    23  
 56   10   24     9    25  
 57   9    26    10    27  
 58   9    28    11    29  
 59   12   30    12    31  
 60   10   32    13    33  

Dihedrals

  1   8     1     2     3     4  
  2   8     1     2     3    13  
  3   2     1     2     3    17  
  4   7    30    12     1     2  
  5   7    31    12     1     2  
  6   12    5     4     3     2  
  7   10   18     4     3     2  
  8   10   19     4     3     2  
  9   12   10    13     3     2  
 10   10   32    13     3     2  
 11   10   33    13     3     2  
 12   5    12     1     2     3  
 13   6    14     1     2     3  
 14   12    3     4     5     6  
 15   11    3     4     5    20  
 16   11    3     4     5    21  
 17   12    3    13    10     9  
 18   11    3    13    10    26  
 19   11    3    13    10    27  
 20   10   15     2     3     4  
 21   10   16     2     3     4  
 22   12   10    13     3     4  
 23   10   32    13     3     4  
 24   10   33    13     3     4  
 25   12    7     6     5     4  
 26   10   22     6     5     4  
 27   10   23     6     5     4  
 28   12    5     4     3    13  
 29   11    5     4     3    17  
 30   10   18     4     5     6  
 31   10   19     4     5     6  
 32   11    7     6     5    20  
 33   11    7     6     5    21  
 34   12   10     9    11     8  
 35   10   24     9    11     8  
 36   10   25     9    11     8  
 37   10   32    13    10     9  
 38   10   33    13    10     9  
 39   11   10     9    11    28  
 40   11   10     9    11    29  
 41   11   10    13     3    17  
 42   12   11     9    10    13  
 43   11   11     9    10    26  
 44   11   11     9    10    27  
 45   4    15     2     1    12  
 46   4    16     2     1    12  
 47   10   15     2     3    13  
 48   10   16     2     3    13  
 49   10   18     4     3    13  
 50   10   19     4     3    13  
 51   10   24     9    10    13  
 52   10   25     9    10    13  
 53   1    15     2     1    14  
 54   1    16     2     1    14  
 55   3    30    12     1    14  
 56   3    31    12     1    14  
 57   9    15     2     3    17  
 58   9    16     2     3    17  
 59   9    18     4     3    17  
 60   9    19     4     3    17  
 61   9    32    13     3    17  
 62   9    33    13     3    17  
 63   9    18     4     5    20  
 64   9    18     4     5    21  
 65   9    19     4     5    20  
 66   9    19     4     5    21  
 67   9    22     6     5    20  
 68   9    23     6     5    20  
 69   9    22     6     5    21  
 70   9    23     6     5    21  
 71   9    24     9    10    26  
 72   9    24     9    10    27  
 73   9    24     9    11    28  
 74   9    24     9    11    29  
 75   9    25     9    10    26  
 76   9    25     9    10    27  
 77   9    25     9    11    28  
 78   9    25     9    11    29  
 79   9    32    13    10    26  
 80   9    33    13    10    26  
 81   9    32    13    10    27  
 82   9    33    13    10    27  

Impropers

  1   2     1    12    30    31  
  2   1     2     1    12    14  
  3   7     1     2    15     3  
  4   7     1     2    16     3  
  5   6     1     2    15    16  
  6   3     2     3     4    13  
  7   4     2     3     4    17  
  8   4     2     3    13    17  
  9   8    15     2    16     3  
 10   9    18     4     3     5  
 11   9    19     4     3     5  
 12   8    18     4    19     3  
 13   9    32    13     3    10  
 14   9    33    13     3    10  
 15   8    32    13    33     3  
 16   4     4     3    13    17  
 17   4     4     5     6    20  
 18   4     4     5     6    21  
 19   5     4     5    20    21  
 20   8    18     4    19     5  
 21   9    22     6     5     7  
 22   9    23     6     5     7  
 23   8    22     6    23     5  
 24   5     6     5    20    21  
 25   8    22     6    23     7  
 26   4     8    11     9    28  
 27   4     8    11     9    29  
 28   5     8    11    28    29  
 29   4     9    10    13    26  
 30   4     9    10    13    27  
 31   5     9    10    26    27  
 32   5     9    11    28    29  
 33   9    24     9    10    11  
 34   9    25     9    10    11  
 35   8    24     9    25    10  
 36   8    32    13    33    10  
 37   8    24     9    25    11  
 38   5    13    10    26    27  
