HEADER,  post5.mol  read w/ mol2lmp > atom_typing v1.0 / 16 Jan 2023 w/PCFF-IFF atom-types > all2lmp: v1.4 / 9 Jan 2023  Class: 2

46 atoms
44 bonds
84 angles
117 dihedrals
56 impropers

4 atom types
5 bond types
8 angle types
9 dihedral types
6 improper types

-6.460228261 7.618571739 xlo xhi
-4.523771739 6.419428261 ylo yhi
-3.497884783 6.305715217 zlo zhi

Masses # class2

1   12.01115000  #  c2   
2    1.00797000  #  h    
3    1.00797000  #  hpan 
4   28.08600000  #  si   

Pair Coeffs  # lj/class2/coul/long

1         0.05400000      4.01000000 #  c2   
2         0.02000000      2.99500000 #  h    
3         0.02000000      2.30000000 #  hpan 
4         0.19000000      4.45000000 #  si   

Bond Coeffs  # class2

1         1.10100000    345.00000000   -691.89000000    844.60000000 #  c2        hpan   
2         1.89950000    189.65360000   -279.42100000    307.51350000 #  c2          si   
3         0.74140000    414.00000000      0.00000000      0.00000000 #  h            h   
4         1.47830000    202.77980000   -305.36030000    280.26850000 #  h           si   
5         2.33840000    114.21640000   -140.42120000     80.70840000 #  si          si   

Angle Coeffs  # class2

1       113.18550000     36.20690000    -20.39390000     20.01720000 #  c2         si         c2   
2       112.09770000     36.48320000    -12.80940000      0.00000000 #  c2         si          h   
3       113.00000000     19.46920000    -34.34710000      0.00000000 #  c2         si         si   
4       108.60510000     32.54150000     -8.31640000      0.00000000 #  h          si          h   
5       112.08930000     22.50620000    -11.59260000      0.00000000 #  h          si         si   
6       107.66000000     39.64100000    -12.92100000     -2.43180000 #  hpan       c2       hpan   
7       112.03550000     28.77210000    -13.95230000      0.00000000 #  hpan       c2         si   
8       112.30000000     34.60000000      0.00000000      0.00000000 #  si         c2         si   

Dihedral Coeffs  # class2

1         0.00000000      0.00000000      0.00000000      0.00000000      0.11110000      0.00000000 #  si         c2        si         si   
2         0.00000000      0.00000000      0.00000000      0.00000000     -0.06570000      0.00000000 #  hpan       c2        si         si   
3         0.00000000      0.00000000      0.00000000      0.00000000     -0.06570000      0.00000000 #  hpan       c2        si          h   
4         0.00000000      0.00000000      0.00000000      0.00000000     -0.06570000      0.00000000 #  hpan       c2        si         c2   
5         0.00000000      0.00000000      0.00000000      0.00000000      0.11110000      0.00000000 #  si         c2        si          h   
6         0.00000000      0.00000000      0.00000000      0.00000000      0.11110000      0.00000000 #  si         c2        si         c2   
7         0.00000000      0.00000000      0.00000000      0.00000000     -0.06530000      0.00000000 #  c2         si        si         c2   
8         0.00000000      0.00000000      0.00000000      0.00000000     -0.06530000      0.00000000 #  h          si        si          h   
9         0.00000000      0.00000000      0.00000000      0.00000000     -0.06530000      0.00000000 #  c2         si        si          h   

Improper Coeffs  # class2

1         0.00000000      0.00000000 #  c2         si        c2        h       nb!=3   
2         0.00000000      0.00000000 #  c2         si        c2        si      nb!=3   
3         0.00000000      0.00000000 #  c2         si        h         h       nb!=3   
4         0.00000000      0.00000000 #  c2         si        h         si      nb!=3   
5         0.00000000      0.00000000 #  hpan       c2       hpan       si      nb!=3   
6         0.00000000      0.00000000 #  hpan       c2        si        si      nb!=3   

BondBond Coeffs  # class2

1         3.74190000      1.89950000      1.89950000 #  c2         si         c2   
2         3.92640000      1.89950000      1.47830000 #  c2         si          h   
3         2.30300000      1.89950000      2.33840000 #  c2         si         si   
4         4.64080000      1.47830000      1.47830000 #  h          si          h   
5         3.51720000      1.47830000      2.33840000 #  h          si         si   
6         5.33160000      1.10100000      1.10100000 #  hpan       c2       hpan   
7         1.65610000      1.10100000      1.89950000 #  hpan       c2         si   
8         0.00000000      1.89950000      1.89950000 #  si         c2         si   

BondAngle Coeffs  # class2

1        18.58050000     18.58050000      1.89950000      1.89950000 #  c2         si         c2   
2        13.39610000      7.41040000      1.89950000      1.47830000 #  c2         si          h   
3        16.94550000     11.43770000      1.89950000      2.33840000 #  c2         si         si   
4         9.34670000      9.34670000      1.47830000      1.47830000 #  h          si          h   
5         5.66300000      2.07060000      1.47830000      2.33840000 #  h          si         si   
6        18.10300000     18.10300000      1.10100000      1.10100000 #  hpan       c2       hpan   
7        16.69080000     18.27640000      1.10100000      1.89950000 #  hpan       c2         si   
8         0.00000000      0.00000000      1.89950000      1.89950000 #  si         c2         si   

AngleAngleTorsion Coeffs  # class2

1         0.00000000    112.30000000    113.00000000 #  si         c2        si         si   
2       -13.36790000    112.03550000    113.00000000 #  hpan       c2        si         si   
3       -12.93410000    112.03550000    112.09770000 #  hpan       c2        si          h   
4       -17.58020000    112.03550000    113.18550000 #  hpan       c2        si         c2   
5         0.00000000    112.30000000    112.09770000 #  si         c2        si          h   
6         0.00000000    112.30000000    113.18550000 #  si         c2        si         c2   
7         0.00000000    113.00000000    113.00000000 #  c2         si        si         c2   
8       -10.82320000    112.08930000    112.08930000 #  h          si        si          h   
9       -16.91410000    113.00000000    112.08930000 #  c2         si        si          h   

EndBondTorsion Coeffs  # class2

1         0.00000000      0.00000000      0.00000000      0.00000000      0.00000000      0.00000000      1.89950000      2.33840000 #  si         c2        si         si   
2         0.00000000      0.00000000      0.00000000      0.00000000      0.00000000      0.00000000      1.10100000      2.33840000 #  hpan       c2        si         si   
3         0.00000000      0.00000000      0.00000000      0.00000000      0.00000000      0.00000000      1.10100000      1.47830000 #  hpan       c2        si          h   
4         0.00000000      0.00000000      0.00000000      0.00000000      0.00000000      0.00000000      1.10100000      1.89950000 #  hpan       c2        si         c2   
5         0.00000000      0.00000000      0.00000000      0.00000000      0.00000000      0.00000000      1.89950000      1.47830000 #  si         c2        si          h   
6         0.00000000      0.00000000      0.00000000      0.00000000      0.00000000      0.00000000      1.89950000      1.89950000 #  si         c2        si         c2   
7         0.00000000      0.00000000      0.00000000      0.00000000      0.00000000      0.00000000      1.89950000      1.89950000 #  c2         si        si         c2   
8         0.00000000      0.00000000      0.00000000      0.00000000      0.00000000      0.00000000      1.47830000      1.47830000 #  h          si        si          h   
9         0.00000000      0.00000000      0.00000000      0.00000000      0.00000000      0.00000000      1.89950000      1.47830000 #  c2         si        si          h   

MiddleBondTorsion Coeffs  # class2

1         0.00000000      0.00000000      0.00000000      1.89950000 #  si         c2        si         si   
2         0.00000000      0.00000000     -0.19090000      1.89950000 #  hpan       c2        si         si   
3         0.00000000      0.00000000     -0.59060000      1.89950000 #  hpan       c2        si          h   
4         0.00000000      0.00000000      0.00000000      1.89950000 #  hpan       c2        si         c2   
5         0.00000000      0.00000000      0.00000000      1.89950000 #  si         c2        si          h   
6         0.00000000      0.00000000      0.00000000      1.89950000 #  si         c2        si         c2   
7         0.00000000      0.00000000      0.00000000      2.33840000 #  c2         si        si         c2   
8         0.00000000      0.00000000     -0.63020000      2.33840000 #  h          si        si          h   
9         0.00000000      0.00000000     -0.69410000      2.33840000 #  c2         si        si          h   

BondBond13 Coeffs  # class2

1         0.00000000      1.89950000      2.33840000 #  si         c2        si         si   
2         0.00000000      1.10100000      2.33840000 #  hpan       c2        si         si   
3         0.00000000      1.10100000      1.47830000 #  hpan       c2        si          h   
4         0.00000000      1.10100000      1.89950000 #  hpan       c2        si         c2   
5         0.00000000      1.89950000      1.47830000 #  si         c2        si          h   
6         0.00000000      1.89950000      1.89950000 #  si         c2        si         c2   
7         0.00000000      1.89950000      1.89950000 #  c2         si        si         c2   
8         0.00000000      1.47830000      1.47830000 #  h          si        si          h   
9         0.00000000      1.89950000      1.47830000 #  c2         si        si          h   

AngleTorsion Coeffs  # class2

1         0.00000000      0.00000000      0.00000000      0.00000000      0.00000000      0.00000000    112.30000000    113.00000000 #  si         c2        si         si   
2         0.00000000      0.00000000      0.16370000      0.00000000      0.00000000      0.04620000    112.03550000    113.00000000 #  hpan       c2        si         si   
3         0.00000000      0.00000000      0.00000000      0.00000000      0.00000000     -0.14230000    112.03550000    112.09770000 #  hpan       c2        si          h   
4         0.00000000      0.00000000      0.33820000      0.00000000      0.00000000      0.42720000    112.03550000    113.18550000 #  hpan       c2        si         c2   
5         0.00000000      0.00000000      0.00000000      0.00000000      0.00000000      0.00000000    112.30000000    112.09770000 #  si         c2        si          h   
6         0.00000000      0.00000000      0.00000000      0.00000000      0.00000000      0.00000000    112.30000000    113.18550000 #  si         c2        si         c2   
7         0.00000000      0.00000000      0.00000000      0.00000000      0.00000000      0.00000000    113.00000000    113.00000000 #  c2         si        si         c2   
8         0.00000000      0.00000000     -0.22880000      0.00000000      0.00000000     -0.22880000    112.08930000    112.08930000 #  h          si        si          h   
9         0.00000000      0.00000000      0.00000000      0.00000000      0.00000000      0.60900000    113.00000000    112.08930000 #  c2         si        si          h   

AngleAngle Coeffs  # class2

1         3.38270000      3.38270000      2.79630000    113.18550000    112.09770000    112.09770000 #  c2         si        c2        h       nb!=3   
2         1.34650000      1.34650000      2.08050000    113.18550000    113.00000000    113.00000000 #  c2         si        c2        si      nb!=3   
3         4.45590000      4.68090000      4.45590000    112.09770000    112.09770000    108.60510000 #  c2         si        h         h       nb!=3   
4         3.47580000      0.00000000     -2.96230000    112.09770000    113.00000000    112.08930000 #  c2         si        h         si      nb!=3   
5         0.00000000      0.00000000      2.20500000    107.66000000    112.03550000    112.03550000 #  hpan       c2       hpan       si      nb!=3   
6         0.00000000      0.00000000      0.00000000    112.03550000    112.30000000    112.03550000 #  hpan       c2        si        si      nb!=3   

Atoms # full

 1  1  1   -0.376000    0.681071739     1.530128261    -0.084084783      0    0    0 #  c2/C
 2  1  4    0.396000   -0.944828261     0.586128261    -0.084084783      0    0    0 #  si/Si
 3  1  1   -0.376000   -1.932428261     1.037428261    -1.618784783      0    0    0 #  c2/C
 4  1  4    0.522000   -3.577528261     1.790128261    -1.107584783      0    0    0 #  si/Si
 5  1  1   -0.376000   -4.565128261     2.241428261    -2.642384783      0    0    0 #  c2/C
 6  1  4    0.135000   -6.210228261     2.994128261    -2.131084783      0    0    0 #  si/Si
 7  1  4    0.522000    0.333971739     3.377828261    -0.084084783      0    0    0 #  si/Si
 8  1  1   -0.376000    1.959871739     4.321728261    -0.084084783      0    0    0 #  c2/C
 9  1  4    0.135000    1.612771739     6.169428261    -0.084084783      0    0    0 #  si/Si
10  1  1   -0.376000   -1.265728261    -2.487271739     1.449115217      0    0    0 #  c2/C
11  1  4    0.396000   -0.512028261    -1.705271739    -0.085484783      0    0    0 #  si/Si
12  1  1   -0.376000    1.346171739    -1.991171739    -0.085084783      0    0    0 #  c2/C
13  1  4    0.522000    1.832171739    -2.961371739    -1.620284783      0    0    0 #  si/Si
14  1  1   -0.376000    3.690271739    -3.247171739    -1.619884783      0    0    0 #  c2/C
15  1  4    0.135000    4.176371739    -4.217371739    -3.155184783      0    0    0 #  si/Si
16  1  4    0.522000   -0.511328261    -1.708871739     2.985115217      0    0    0 #  si/Si
17  1  1   -0.376000   -1.265028261    -2.490771739     4.519615217      0    0    0 #  c2/C
18  1  4    0.135000   -0.510628261    -1.712371739     6.055715217      0    0    0 #  si/Si
19  1  3    0.053000    1.264571739     1.262728261     0.825215217      0    0    0 #  hpan/H
20  1  3    0.053000    1.265171739     1.262528261    -0.992884783      0    0    0 #  hpan/H
21  1  2   -0.126000   -1.726328261     0.944128261     1.131715217      0    0    0 #  h/H
22  1  3    0.053000   -1.359728261     1.775028261    -2.224284783      0    0    0 #  hpan/H
23  1  3    0.053000   -2.115828261     0.121628261    -2.224284783      0    0    0 #  hpan/H
24  1  2   -0.126000   -4.343728261     0.803328261    -0.297584783      0    0    0 #  h/H
25  1  2   -0.126000   -3.332128261     3.015228261    -0.297584783      0    0    0 #  h/H
26  1  3    0.053000   -3.992428261     2.979028261    -3.247884783      0    0    0 #  hpan/H
27  1  3    0.053000   -4.748528261     1.325628261    -3.247784783      0    0    0 #  hpan/H
28  1  2   -0.126000   -0.446728261     3.735428261    -1.300484783      0    0    0 #  h/H
29  1  2   -0.126000   -0.447528261     3.735728261     1.131715217      0    0    0 #  h/H
30  1  3    0.053000    2.543371739     4.054428261     0.825215217      0    0    0 #  hpan/H
31  1  3    0.053000    2.543971739     4.054128261    -0.992884783      0    0    0 #  hpan/H
32  1  3    0.053000   -2.365628261    -2.316871739     1.449515217      0    0    0 #  hpan/H
33  1  3    0.053000   -1.058728261    -3.580871739     1.447815217      0    0    0 #  hpan/H
34  1  2   -0.126000   -1.110028261    -2.322371739    -1.301484783      0    0    0 #  h/H
35  1  3    0.053000    1.871871739    -1.010171739    -0.084984783      0    0    0 #  hpan/H
36  1  3    0.053000    1.632571739    -2.566771739     0.823415217      0    0    0 #  hpan/H
37  1  2   -0.126000    1.128871739    -4.273771739    -1.620484783      0    0    0 #  h/H
38  1  2   -0.126000    1.448971739    -2.191271739    -2.835784783      0    0    0 #  h/H
39  1  3    0.053000    4.216071739    -2.266171739    -1.619784783      0    0    0 #  hpan/H
40  1  3    0.053000    3.976771739    -3.822771739    -0.711384783      0    0    0 #  hpan/H
41  1  2   -0.126000    0.960171739    -1.936771739     2.984515217      0    0    0 #  h/H
42  1  2   -0.126000   -0.788128261    -0.245771739     2.986815217      0    0    0 #  h/H
43  1  3    0.053000   -2.364928261    -2.320471739     4.520115217      0    0    0 #  hpan/H
44  1  3    0.053000   -1.058128261    -3.584371739     4.518315217      0    0    0 #  hpan/H
45  2  2    0.000000    7.368571739     0.832628261    -0.084084783      0    0    0 #  h/H
46  2  2    0.000000    6.699771739     1.010128261    -0.084084783      0    0    0 #  h/H

Bonds

  1   2     1     2  
  2   2     1     7  
  3   1     1    19  
  4   1     1    20  
  5   2     3     2  
  6   5     2    11  
  7   4    21     2  
  8   2     3     4  
  9   1     3    22  
 10   1     3    23  
 11   2     5     4  
 12   4    24     4  
 13   4    25     4  
 14   2     5     6  
 15   1     5    26  
 16   1     5    27  
 17   2     8     7  
 18   4    28     7  
 19   4    29     7  
 20   2     8     9  
 21   1     8    30  
 22   1     8    31  
 23   2    10    11  
 24   2    10    16  
 25   1    10    32  
 26   1    10    33  
 27   2    12    11  
 28   4    34    11  
 29   2    12    13  
 30   1    12    35  
 31   1    12    36  
 32   2    14    13  
 33   4    37    13  
 34   4    38    13  
 35   2    14    15  
 36   1    14    39  
 37   1    14    40  
 38   2    17    16  
 39   4    41    16  
 40   4    42    16  
 41   2    17    18  
 42   1    17    43  
 43   1    17    44  
 44   3    45    46  

Angles

  1   1     1     2     3  
  2   3     1     2    11  
  3   2     1     2    21  
  4   1     1     7     8  
  5   2     1     7    28  
  6   2     1     7    29  
  7   8     2     1     7  
  8   7    19     1     2  
  9   7    20     1     2  
 10   8     2     3     4  
 11   7    22     3     2  
 12   7    23     3     2  
 13   3    10    11     2  
 14   3    12    11     2  
 15   5    34    11     2  
 16   3     3     2    11  
 17   2     3     2    21  
 18   1     3     4     5  
 19   2     3     4    24  
 20   2     3     4    25  
 21   7    22     3     4  
 22   7    23     3     4  
 23   8     4     5     6  
 24   7    26     5     4  
 25   7    27     5     4  
 26   2     5     4    24  
 27   2     5     4    25  
 28   7    26     5     6  
 29   7    27     5     6  
 30   7    19     1     7  
 31   7    20     1     7  
 32   8     7     8     9  
 33   7    30     8     7  
 34   7    31     8     7  
 35   2     8     7    28  
 36   2     8     7    29  
 37   7    30     8     9  
 38   7    31     8     9  
 39   1    10    11    12  
 40   2    10    11    34  
 41   1    10    16    17  
 42   2    10    16    41  
 43   2    10    16    42  
 44   5    21     2    11  
 45   8    11    10    16  
 46   7    32    10    11  
 47   7    33    10    11  
 48   8    11    12    13  
 49   7    35    12    11  
 50   7    36    12    11  
 51   2    12    11    34  
 52   1    12    13    14  
 53   2    12    13    37  
 54   2    12    13    38  
 55   7    35    12    13  
 56   7    36    12    13  
 57   8    13    14    15  
 58   7    39    14    13  
 59   7    40    14    13  
 60   2    14    13    37  
 61   2    14    13    38  
 62   7    39    14    15  
 63   7    40    14    15  
 64   7    32    10    16  
 65   7    33    10    16  
 66   8    16    17    18  
 67   7    43    17    16  
 68   7    44    17    16  
 69   2    17    16    41  
 70   2    17    16    42  
 71   7    43    17    18  
 72   7    44    17    18  
 73   6    19     1    20  
 74   6    22     3    23  
 75   4    24     4    25  
 76   6    26     5    27  
 77   4    28     7    29  
 78   6    30     8    31  
 79   6    32    10    33  
 80   6    35    12    36  
 81   4    37    13    38  
 82   6    39    14    40  
 83   4    41    16    42  
 84   6    43    17    44  

Dihedrals

  1   6     4     3     2     1  
  2   4    22     3     2     1  
  3   4    23     3     2     1  
  4   7     1     2    11    10  
  5   7     1     2    11    12  
  6   9     1     2    11    34  
  7   6     9     8     7     1  
  8   4    30     8     7     1  
  9   4    31     8     7     1  
 10   6     2     1     7     8  
 11   5     2     1     7    28  
 12   5     2     1     7    29  
 13   6     2     3     4     5  
 14   5     2     3     4    24  
 15   5     2     3     4    25  
 16   1    16    10    11     2  
 17   2    32    10    11     2  
 18   2    33    10    11     2  
 19   1    13    12    11     2  
 20   2    35    12    11     2  
 21   2    36    12    11     2  
 22   6     7     1     2     3  
 23   4    19     1     2     3  
 24   4    20     1     2     3  
 25   7     3     2    11    10  
 26   7     3     2    11    12  
 27   9     3     2    11    34  
 28   6     6     5     4     3  
 29   4    26     5     4     3  
 30   4    27     5     4     3  
 31   1     4     3     2    11  
 32   5     4     3     2    21  
 33   4    22     3     4     5  
 34   4    23     3     4     5  
 35   5     6     5     4    24  
 36   5     6     5     4    25  
 37   1     7     1     2    11  
 38   5     7     1     2    21  
 39   4    19     1     7     8  
 40   4    20     1     7     8  
 41   5     9     8     7    28  
 42   5     9     8     7    29  
 43   9    10    11     2    21  
 44   6    13    12    11    10  
 45   4    35    12    11    10  
 46   4    36    12    11    10  
 47   6    18    17    16    10  
 48   4    43    17    16    10  
 49   4    44    17    16    10  
 50   2    19     1     2    11  
 51   2    20     1     2    11  
 52   2    22     3     2    11  
 53   2    23     3     2    11  
 54   6    11    10    16    17  
 55   5    11    10    16    41  
 56   5    11    10    16    42  
 57   6    11    12    13    14  
 58   5    11    12    13    37  
 59   5    11    12    13    38  
 60   9    12    11     2    21  
 61   6    16    10    11    12  
 62   4    32    10    11    12  
 63   4    33    10    11    12  
 64   6    15    14    13    12  
 65   4    39    14    13    12  
 66   4    40    14    13    12  
 67   5    13    12    11    34  
 68   4    35    12    13    14  
 69   4    36    12    13    14  
 70   5    15    14    13    37  
 71   5    15    14    13    38  
 72   5    16    10    11    34  
 73   4    32    10    16    17  
 74   4    33    10    16    17  
 75   5    18    17    16    41  
 76   5    18    17    16    42  
 77   3    19     1     2    21  
 78   3    19     1     7    28  
 79   3    19     1     7    29  
 80   3    20     1     2    21  
 81   3    20     1     7    28  
 82   3    20     1     7    29  
 83   3    22     3     2    21  
 84   3    23     3     2    21  
 85   8    21     2    11    34  
 86   3    22     3     4    24  
 87   3    22     3     4    25  
 88   3    23     3     4    24  
 89   3    23     3     4    25  
 90   3    26     5     4    24  
 91   3    27     5     4    24  
 92   3    26     5     4    25  
 93   3    27     5     4    25  
 94   3    30     8     7    28  
 95   3    31     8     7    28  
 96   3    30     8     7    29  
 97   3    31     8     7    29  
 98   3    32    10    11    34  
 99   3    32    10    16    41  
 100  3    32    10    16    42  
 101  3    33    10    11    34  
 102  3    33    10    16    41  
 103  3    33    10    16    42  
 104  3    35    12    11    34  
 105  3    36    12    11    34  
 106  3    35    12    13    37  
 107  3    35    12    13    38  
 108  3    36    12    13    37  
 109  3    36    12    13    38  
 110  3    39    14    13    37  
 111  3    40    14    13    37  
 112  3    39    14    13    38  
 113  3    40    14    13    38  
 114  3    43    17    16    41  
 115  3    44    17    16    41  
 116  3    43    17    16    42  
 117  3    44    17    16    42  

Impropers

  1   2     1     2     3    11  
  2   1     1     2     3    21  
  3   4     1     2    21    11  
  4   1     1     7     8    28  
  5   1     1     7     8    29  
  6   3     1     7    28    29  
  7   6    19     1     2     7  
  8   6    20     1     2     7  
  9   5    19     1    20     2  
 10   6    22     3     2     4  
 11   6    23     3     2     4  
 12   5    22     3    23     2  
 13   2    10    11    12     2  
 14   4    10    11    34     2  
 15   4    12    11    34     2  
 16   4     3     2    21    11  
 17   1     3     4     5    24  
 18   1     3     4     5    25  
 19   3     3     4    24    25  
 20   5    22     3    23     4  
 21   6    26     5     4     6  
 22   6    27     5     4     6  
 23   5    26     5    27     4  
 24   3     5     4    24    25  
 25   5    26     5    27     6  
 26   5    19     1    20     7  
 27   6    30     8     7     9  
 28   6    31     8     7     9  
 29   5    30     8    31     7  
 30   3     8     7    28    29  
 31   5    30     8    31     9  
 32   1    10    11    12    34  
 33   1    10    16    17    41  
 34   1    10    16    17    42  
 35   3    10    16    41    42  
 36   6    32    10    11    16  
 37   6    33    10    11    16  
 38   5    32    10    33    11  
 39   6    35    12    11    13  
 40   6    36    12    11    13  
 41   5    35    12    36    11  
 42   1    12    13    14    37  
 43   1    12    13    14    38  
 44   3    12    13    37    38  
 45   5    35    12    36    13  
 46   6    39    14    13    15  
 47   6    40    14    13    15  
 48   5    39    14    40    13  
 49   3    14    13    37    38  
 50   5    39    14    40    15  
 51   5    32    10    33    16  
 52   6    43    17    16    18  
 53   6    44    17    16    18  
 54   5    43    17    44    16  
 55   3    17    16    41    42  
 56   5    43    17    44    18  
