HEADER,  post1a.mol  read w/ mol2lmp > atom_typing v1.0 / 16 Jan 2023 w/PCFF-IFF atom-types > all2lmp: v1.4 / 9 Jan 2023  Class: 2

38 atoms
37 bonds
72 angles
99 dihedrals
48 impropers

4 atom types
4 bond types
9 angle types
10 dihedral types
8 improper types

-5.073984210 6.938615790 xlo xhi
-3.096555263 3.818644737 ylo yhi
-4.434415790 5.164784210 zlo zhi

Masses # class2

1   12.01115000  #  c2   
2    1.00797000  #  h    
3    1.00797000  #  hpan 
4   28.08600000  #  si   

Pair Coeffs  # lj/class2/coul/long

1         0.05400000      4.01000000 #  c2   
2         0.02000000      2.99500000 #  h    
3         0.02000000      2.30000000 #  hpan 
4         0.19000000      4.45000000 #  si   

Bond Coeffs  # class2

1         1.53000000    299.67000000   -501.77000000    679.81000000 #  c2          c2   
2         1.10100000    345.00000000   -691.89000000    844.60000000 #  c2        hpan   
3         1.89950000    189.65360000   -279.42100000    307.51350000 #  c2          si   
4         1.47830000    202.77980000   -305.36030000    280.26850000 #  h           si   

Angle Coeffs  # class2

1       112.67000000     39.51600000     -7.44300000     -9.55830000 #  c2         c2         c2   
2       110.77000000     41.45300000    -10.60400000      5.12900000 #  c2         c2       hpan   
3       112.67000000     39.51600000     -7.44300000      0.00000000 #  c2         c2         si   
4       113.18550000     36.20690000    -20.39390000     20.01720000 #  c2         si         c2   
5       112.09770000     36.48320000    -12.80940000      0.00000000 #  c2         si          h   
6       108.60510000     32.54150000     -8.31640000      0.00000000 #  h          si          h   
7       107.66000000     39.64100000    -12.92100000     -2.43180000 #  hpan       c2       hpan   
8       112.03550000     28.77210000    -13.95230000      0.00000000 #  hpan       c2         si   
9       112.30000000     34.60000000      0.00000000      0.00000000 #  si         c2         si   

Dihedral Coeffs  # class2

1        -0.14320000      0.00000000      0.06170000      0.00000000     -0.10830000      0.00000000 #  hpan       c2        c2       hpan   
2         0.00000000      0.00000000      0.03160000      0.00000000     -0.16810000      0.00000000 #  c2         c2        c2       hpan   
3         0.00000000      0.00000000      0.05140000      0.00000000     -0.14300000      0.00000000 #  c2         c2        c2         si   
4         0.00000000      0.00000000      0.05140000      0.00000000     -0.14300000      0.00000000 #  hpan       c2        c2         si   
5         0.00000000      0.00000000      0.00000000      0.00000000     -0.06570000      0.00000000 #  c2         c2        si         c2   
6         0.00000000      0.00000000      0.00000000      0.00000000     -0.06570000      0.00000000 #  c2         c2        si          h   
7         0.00000000      0.00000000      0.00000000      0.00000000     -0.06570000      0.00000000 #  hpan       c2        si          h   
8         0.00000000      0.00000000      0.00000000      0.00000000     -0.06570000      0.00000000 #  hpan       c2        si         c2   
9         0.00000000      0.00000000      0.00000000      0.00000000      0.11110000      0.00000000 #  si         c2        si         c2   
10        0.00000000      0.00000000      0.00000000      0.00000000      0.11110000      0.00000000 #  si         c2        si          h   

Improper Coeffs  # class2

1         0.00000000      0.00000000 #  c2         c2        c2       hpan     nb!=3   
2         0.00000000      0.00000000 #  c2         c2       hpan      hpan     nb!=3   
3         0.00000000      0.00000000 #  c2         c2       hpan       si      nb!=3   
4         0.00000000      0.00000000 #  c2         si        c2        c2      nb!=3   
5         0.00000000      0.00000000 #  c2         si        c2        h       nb!=3   
6         0.00000000      0.00000000 #  c2         si        h         h       nb!=3   
7         0.00000000      0.00000000 #  hpan       c2       hpan       si      nb!=3   
8         0.00000000      0.00000000 #  hpan       c2        si        si      nb!=3   

BondBond Coeffs  # class2

1         0.00000000      1.53000000      1.53000000 #  c2         c2         c2   
2         3.38720000      1.53000000      1.10100000 #  c2         c2       hpan   
3         0.00000000      1.53000000      1.89950000 #  c2         c2         si   
4         3.74190000      1.89950000      1.89950000 #  c2         si         c2   
5         3.92640000      1.89950000      1.47830000 #  c2         si          h   
6         4.64080000      1.47830000      1.47830000 #  h          si          h   
7         5.33160000      1.10100000      1.10100000 #  hpan       c2       hpan   
8         1.65610000      1.10100000      1.89950000 #  hpan       c2         si   
9         0.00000000      1.89950000      1.89950000 #  si         c2         si   

BondAngle Coeffs  # class2

1         8.01600000      8.01600000      1.53000000      1.53000000 #  c2         c2         c2   
2        20.75400000     11.42100000      1.53000000      1.10100000 #  c2         c2       hpan   
3         0.00000000      0.00000000      1.53000000      1.89950000 #  c2         c2         si   
4        18.58050000     18.58050000      1.89950000      1.89950000 #  c2         si         c2   
5        13.39610000      7.41040000      1.89950000      1.47830000 #  c2         si          h   
6         9.34670000      9.34670000      1.47830000      1.47830000 #  h          si          h   
7        18.10300000     18.10300000      1.10100000      1.10100000 #  hpan       c2       hpan   
8        16.69080000     18.27640000      1.10100000      1.89950000 #  hpan       c2         si   
9         0.00000000      0.00000000      1.89950000      1.89950000 #  si         c2         si   

AngleAngleTorsion Coeffs  # class2

1       -12.56400000    110.77000000    110.77000000 #  hpan       c2        c2       hpan   
2       -16.16400000    112.67000000    110.77000000 #  c2         c2        c2       hpan   
3         0.00000000    112.67000000    112.67000000 #  c2         c2        c2         si   
4         0.00000000    110.77000000    112.67000000 #  hpan       c2        c2         si   
5         0.00000000    112.67000000    113.18550000 #  c2         c2        si         c2   
6         0.00000000    112.67000000    112.09770000 #  c2         c2        si          h   
7       -12.93410000    112.03550000    112.09770000 #  hpan       c2        si          h   
8       -17.58020000    112.03550000    113.18550000 #  hpan       c2        si         c2   
9         0.00000000    112.30000000    113.18550000 #  si         c2        si         c2   
10        0.00000000    112.30000000    112.09770000 #  si         c2        si          h   

EndBondTorsion Coeffs  # class2

1         0.21300000      0.31200000      0.07770000      0.21300000      0.31200000      0.07770000      1.10100000      1.10100000 #  hpan       c2        c2       hpan   
2         0.24860000      0.24220000     -0.09250000      0.08140000      0.05910000      0.22190000      1.53000000      1.10100000 #  c2         c2        c2       hpan   
3         0.00000000      0.00000000      0.00000000      0.00000000      0.00000000      0.00000000      1.53000000      1.89950000 #  c2         c2        c2         si   
4         0.00000000      0.00000000      0.00000000      0.00000000      0.00000000      0.00000000      1.10100000      1.89950000 #  hpan       c2        c2         si   
5         0.00000000      0.00000000      0.00000000      0.00000000      0.00000000      0.00000000      1.53000000      1.89950000 #  c2         c2        si         c2   
6         0.00000000      0.00000000      0.00000000      0.00000000      0.00000000      0.00000000      1.53000000      1.47830000 #  c2         c2        si          h   
7         0.00000000      0.00000000      0.00000000      0.00000000      0.00000000      0.00000000      1.10100000      1.47830000 #  hpan       c2        si          h   
8         0.00000000      0.00000000      0.00000000      0.00000000      0.00000000      0.00000000      1.10100000      1.89950000 #  hpan       c2        si         c2   
9         0.00000000      0.00000000      0.00000000      0.00000000      0.00000000      0.00000000      1.89950000      1.89950000 #  si         c2        si         c2   
10        0.00000000      0.00000000      0.00000000      0.00000000      0.00000000      0.00000000      1.89950000      1.47830000 #  si         c2        si          h   

MiddleBondTorsion Coeffs  # class2

1       -14.26100000     -0.53220000     -0.48640000      1.53000000 #  hpan       c2        c2       hpan   
2       -14.87900000     -3.65810000     -0.31380000      1.53000000 #  c2         c2        c2       hpan   
3         0.00000000      0.00000000      0.00000000      1.53000000 #  c2         c2        c2         si   
4         0.00000000      0.00000000      0.00000000      1.53000000 #  hpan       c2        c2         si   
5         0.00000000      0.00000000      0.00000000      1.89950000 #  c2         c2        si         c2   
6         0.00000000      0.00000000      0.00000000      1.89950000 #  c2         c2        si          h   
7         0.00000000      0.00000000     -0.59060000      1.89950000 #  hpan       c2        si          h   
8         0.00000000      0.00000000      0.00000000      1.89950000 #  hpan       c2        si         c2   
9         0.00000000      0.00000000      0.00000000      1.89950000 #  si         c2        si         c2   
10        0.00000000      0.00000000      0.00000000      1.89950000 #  si         c2        si          h   

BondBond13 Coeffs  # class2

1         0.00000000      1.10100000      1.10100000 #  hpan       c2        c2       hpan   
2         0.00000000      1.53000000      1.10100000 #  c2         c2        c2       hpan   
3         0.00000000      1.53000000      1.89950000 #  c2         c2        c2         si   
4         0.00000000      1.10100000      1.89950000 #  hpan       c2        c2         si   
5         0.00000000      1.53000000      1.89950000 #  c2         c2        si         c2   
6         0.00000000      1.53000000      1.47830000 #  c2         c2        si          h   
7         0.00000000      1.10100000      1.47830000 #  hpan       c2        si          h   
8         0.00000000      1.10100000      1.89950000 #  hpan       c2        si         c2   
9         0.00000000      1.89950000      1.89950000 #  si         c2        si         c2   
10        0.00000000      1.89950000      1.47830000 #  si         c2        si          h   

AngleTorsion Coeffs  # class2

1        -0.80850000      0.55690000     -0.24660000     -0.80850000      0.55690000     -0.24660000    110.77000000    110.77000000 #  hpan       c2        c2       hpan   
2        -0.24540000      0.00000000     -0.11360000      0.31130000      0.45160000     -0.19880000    112.67000000    110.77000000 #  c2         c2        c2       hpan   
3         0.00000000      0.00000000      0.00000000      0.00000000      0.00000000      0.00000000    112.67000000    112.67000000 #  c2         c2        c2         si   
4         0.00000000      0.00000000      0.00000000      0.00000000      0.00000000      0.00000000    110.77000000    112.67000000 #  hpan       c2        c2         si   
5         0.00000000      0.00000000      0.00000000      0.00000000      0.00000000      0.00000000    112.67000000    113.18550000 #  c2         c2        si         c2   
6         0.00000000      0.00000000      0.00000000      0.00000000      0.00000000      0.00000000    112.67000000    112.09770000 #  c2         c2        si          h   
7         0.00000000      0.00000000      0.00000000      0.00000000      0.00000000     -0.14230000    112.03550000    112.09770000 #  hpan       c2        si          h   
8         0.00000000      0.00000000      0.33820000      0.00000000      0.00000000      0.42720000    112.03550000    113.18550000 #  hpan       c2        si         c2   
9         0.00000000      0.00000000      0.00000000      0.00000000      0.00000000      0.00000000    112.30000000    113.18550000 #  si         c2        si         c2   
10        0.00000000      0.00000000      0.00000000      0.00000000      0.00000000      0.00000000    112.30000000    112.09770000 #  si         c2        si          h   

AngleAngle Coeffs  # class2

1        -1.31990000     -1.31990000      0.11840000    112.67000000    110.77000000    110.77000000 #  c2         c2        c2       hpan     nb!=3   
2         0.27380000     -0.48250000      0.27380000    110.77000000    110.77000000    107.66000000 #  c2         c2       hpan      hpan     nb!=3   
3         0.00000000      0.00000000      0.00000000    110.77000000    112.03550000    112.67000000 #  c2         c2       hpan       si      nb!=3   
4         0.00000000      0.00000000      0.00000000    113.18550000    113.18550000    113.18550000 #  c2         si        c2        c2      nb!=3   
5         3.38270000      3.38270000      2.79630000    113.18550000    112.09770000    112.09770000 #  c2         si        c2        h       nb!=3   
6         4.45590000      4.68090000      4.45590000    112.09770000    112.09770000    108.60510000 #  c2         si        h         h       nb!=3   
7         0.00000000      0.00000000      2.20500000    107.66000000    112.03550000    112.03550000 #  hpan       c2       hpan       si      nb!=3   
8         0.00000000      0.00000000      0.00000000    112.03550000    112.30000000    112.03550000 #  hpan       c2        si        si      nb!=3   

Atoms # full

 1  1  1   -0.241000   -0.474184211    -1.698255263    -0.205015789      0    0    0 #  c2/C
 2  1  1   -0.106000    0.844715789    -0.936755263    -0.205015789      0    0    0 #  c2/C
 3  1  1   -0.241000    2.002815789    -1.925855263    -0.205015789      0    0    0 #  c2/C
 4  1  4    0.522000    3.630915789    -0.985855263    -0.205015789      0    0    0 #  si/Si
 5  1  1   -0.376000    5.060515789    -2.206755263    -0.205015789      0    0    0 #  c2/C
 6  1  4    0.135000    6.688615789    -1.266755263    -0.205015789      0    0    0 #  si/Si
 7  1  4    0.135000    1.547015789     3.568644737    -3.276715789      0    0    0 #  si/Si
 8  1  1   -0.376000   -0.080084211     2.627044737    -3.275615789      0    0    0 #  c2/C
 9  1  1   -0.376000   -1.805484211     0.604044737    -1.739815789      0    0    0 #  c2/C
10  1  1   -0.376000   -1.803284211     0.603844737     1.329684211      0    0    0 #  c2/C
11  1  4    0.522000   -3.363884211     0.384844737     2.354884211      0    0    0 #  si/Si
12  1  1   -0.376000   -3.263384211     1.465944737     3.889584211      0    0    0 #  c2/C
13  1  4    0.522000   -0.178384211     1.545644737    -1.740915789      0    0    0 #  si/Si
14  1  4    0.135000   -4.823984211     1.246944737     4.914784211      0    0    0 #  si/Si
15  1  4    0.531000   -1.903784211    -0.477355263    -0.205015789      0    0    0 #  si/Si
16  1  3    0.053000   -0.532984211    -2.337455263    -1.114315789      0    0    0 #  hpan/H
17  1  3    0.053000   -0.532984211    -2.338055263     0.703784211      0    0    0 #  hpan/H
18  1  3    0.053000    0.903415789    -0.297555263     0.704184211      0    0    0 #  hpan/H
19  1  3    0.053000    0.903515789    -0.296955263    -1.113815789      0    0    0 #  hpan/H
20  1  3    0.053000    1.944115789    -2.565055263    -1.114315789      0    0    0 #  hpan/H
21  1  3    0.053000    1.944115789    -2.565655263     0.703784211      0    0    0 #  hpan/H
22  1  2   -0.126000    3.709515789    -0.130655263     1.011384211      0    0    0 #  h/H
23  1  2   -0.126000    3.709615789    -0.129855263    -1.420815789      0    0    0 #  h/H
24  1  3    0.053000    5.001815789    -2.845955263    -1.114315789      0    0    0 #  hpan/H
25  1  3    0.053000    5.001715789    -2.846555263     0.703784211      0    0    0 #  hpan/H
26  1  3    0.053000   -0.926384211     3.349844737    -3.274315789      0    0    0 #  hpan/H
27  1  3    0.053000   -0.138884211     1.987244737    -4.184415789      0    0    0 #  hpan/H
28  1  3    0.053000   -2.651784211     1.326844737    -1.738415789      0    0    0 #  hpan/H
29  1  3    0.053000   -1.864284211    -0.035755263    -2.648615789      0    0    0 #  hpan/H
30  1  3    0.053000   -0.917784211     0.306644737     1.934884211      0    0    0 #  hpan/H
31  1  3    0.053000   -1.705484211     1.670244737     1.026284211      0    0    0 #  hpan/H
32  1  2   -0.126000   -4.548584211     0.782344737     1.545284211      0    0    0 #  h/H
33  1  2   -0.126000   -3.494684211    -1.041855263     2.760784211      0    0    0 #  h/H
34  1  3    0.053000   -2.377884211     1.168844737     4.494784211      0    0    0 #  hpan/H
35  1  3    0.053000   -3.165684211     2.532344737     3.586284211      0    0    0 #  hpan/H
36  1  2   -0.126000    0.953915789     0.578644737    -1.742615789      0    0    0 #  h/H
37  1  2   -0.126000   -0.099684211     2.401644737    -0.525015789      0    0    0 #  h/H
38  1  2   -0.126000   -3.192784211    -1.222655263    -0.205015789      0    0    0 #  h/H

Bonds

  1   1     1     2  
  2   3     1    15  
  3   2     1    16  
  4   2     1    17  
  5   1     2     3  
  6   2     2    18  
  7   2     2    19  
  8   3     3     4  
  9   2     3    20  
 10   2     3    21  
 11   3     5     4  
 12   4    22     4  
 13   4    23     4  
 14   3     5     6  
 15   2     5    24  
 16   2     5    25  
 17   3     8     7  
 18   3     8    13  
 19   2     8    26  
 20   2     8    27  
 21   3     9    13  
 22   3     9    15  
 23   2     9    28  
 24   2     9    29  
 25   3    10    11  
 26   3    10    15  
 27   2    10    30  
 28   2    10    31  
 29   3    12    11  
 30   4    32    11  
 31   4    33    11  
 32   3    12    14  
 33   2    12    34  
 34   2    12    35  
 35   4    36    13  
 36   4    37    13  
 37   4    38    15  

Angles

  1   1     1     2     3  
  2   2     1     2    18  
  3   2     1     2    19  
  4   4     1    15     9  
  5   4     1    15    10  
  6   5     1    15    38  
  7   3     2     1    15  
  8   2     2     1    16  
  9   2     2     1    17  
 10   3     2     3     4  
 11   2     2     3    20  
 12   2     2     3    21  
 13   2     3     2    18  
 14   2     3     2    19  
 15   4     3     4     5  
 16   5     3     4    22  
 17   5     3     4    23  
 18   8    20     3     4  
 19   8    21     3     4  
 20   9     4     5     6  
 21   8    24     5     4  
 22   8    25     5     4  
 23   5     5     4    22  
 24   5     5     4    23  
 25   8    24     5     6  
 26   8    25     5     6  
 27   9     7     8    13  
 28   8    26     8     7  
 29   8    27     8     7  
 30   4     8    13     9  
 31   5     8    13    36  
 32   5     8    13    37  
 33   5     9    13    36  
 34   5     9    13    37  
 35   4     9    15    10  
 36   5     9    15    38  
 37   4    10    11    12  
 38   5    10    11    32  
 39   5    10    11    33  
 40   5    10    15    38  
 41   9    11    10    15  
 42   8    30    10    11  
 43   8    31    10    11  
 44   9    11    12    14  
 45   8    34    12    11  
 46   8    35    12    11  
 47   5    12    11    32  
 48   5    12    11    33  
 49   8    26     8    13  
 50   8    27     8    13  
 51   9    13     9    15  
 52   8    28     9    13  
 53   8    29     9    13  
 54   8    34    12    14  
 55   8    35    12    14  
 56   8    16     1    15  
 57   8    17     1    15  
 58   8    28     9    15  
 59   8    29     9    15  
 60   8    30    10    15  
 61   8    31    10    15  
 62   7    16     1    17  
 63   7    18     2    19  
 64   7    20     3    21  
 65   6    22     4    23  
 66   7    24     5    25  
 67   7    26     8    27  
 68   7    28     9    29  
 69   7    30    10    31  
 70   6    32    11    33  
 71   7    34    12    35  
 72   6    36    13    37  

Dihedrals

  1   3     1     2     3     4  
  2   2     1     2     3    20  
  3   2     1     2     3    21  
  4   9    13     9    15     1  
  5   8    28     9    15     1  
  6   8    29     9    15     1  
  7   9    11    10    15     1  
  8   8    30    10    15     1  
  9   8    31    10    15     1  
 10   5     2     1    15     9  
 11   5     2     1    15    10  
 12   6     2     1    15    38  
 13   5     2     3     4     5  
 14   6     2     3     4    22  
 15   6     2     3     4    23  
 16   3     3     2     1    15  
 17   2     3     2     1    16  
 18   2     3     2     1    17  
 19   9     6     5     4     3  
 20   8    24     5     4     3  
 21   8    25     5     4     3  
 22   4    18     2     3     4  
 23   4    19     2     3     4  
 24   8    20     3     4     5  
 25   8    21     3     4     5  
 26   10    6     5     4    22  
 27   10    6     5     4    23  
 28   9     7     8    13     9  
 29   10    7     8    13    36  
 30   10    7     8    13    37  
 31   9    15     9    13     8  
 32   8    28     9    13     8  
 33   8    29     9    13     8  
 34   8    26     8    13     9  
 35   8    27     8    13     9  
 36   8    16     1    15     9  
 37   8    17     1    15     9  
 38   9    11    10    15     9  
 39   8    30    10    15     9  
 40   8    31    10    15     9  
 41   9    14    12    11    10  
 42   8    34    12    11    10  
 43   8    35    12    11    10  
 44   8    16     1    15    10  
 45   8    17     1    15    10  
 46   9    13     9    15    10  
 47   8    28     9    15    10  
 48   8    29     9    15    10  
 49   10   11    10    15    38  
 50   9    15    10    11    12  
 51   8    30    10    11    12  
 52   8    31    10    11    12  
 53   10   13     9    15    38  
 54   10   14    12    11    32  
 55   10   14    12    11    33  
 56   4    18     2     1    15  
 57   4    19     2     1    15  
 58   10   15     9    13    36  
 59   10   15     9    13    37  
 60   10   15    10    11    32  
 61   10   15    10    11    33  
 62   1    16     1     2    18  
 63   1    16     1     2    19  
 64   7    16     1    15    38  
 65   1    17     1     2    18  
 66   1    17     1     2    19  
 67   7    17     1    15    38  
 68   1    18     2     3    20  
 69   1    18     2     3    21  
 70   1    19     2     3    20  
 71   1    19     2     3    21  
 72   7    20     3     4    22  
 73   7    20     3     4    23  
 74   7    21     3     4    22  
 75   7    21     3     4    23  
 76   7    24     5     4    22  
 77   7    25     5     4    22  
 78   7    24     5     4    23  
 79   7    25     5     4    23  
 80   7    26     8    13    36  
 81   7    26     8    13    37  
 82   7    27     8    13    36  
 83   7    27     8    13    37  
 84   7    28     9    13    36  
 85   7    28     9    13    37  
 86   7    28     9    15    38  
 87   7    29     9    13    36  
 88   7    29     9    13    37  
 89   7    29     9    15    38  
 90   7    30    10    11    32  
 91   7    30    10    11    33  
 92   7    30    10    15    38  
 93   7    31    10    11    32  
 94   7    31    10    11    33  
 95   7    31    10    15    38  
 96   7    34    12    11    32  
 97   7    35    12    11    32  
 98   7    34    12    11    33  
 99   7    35    12    11    33  

Impropers

  1   1     1     2     3    18  
  2   1     1     2     3    19  
  3   2     1     2    18    19  
  4   4     1    15     9    10  
  5   5     1    15     9    38  
  6   5     1    15    10    38  
  7   3     2     1    16    15  
  8   3     2     1    17    15  
  9   2     2     1    16    17  
 10   3     2     3    20     4  
 11   3     2     3    21     4  
 12   2     2     3    20    21  
 13   2     3     2    18    19  
 14   5     3     4     5    22  
 15   5     3     4     5    23  
 16   6     3     4    22    23  
 17   7    20     3    21     4  
 18   8    24     5     4     6  
 19   8    25     5     4     6  
 20   7    24     5    25     4  
 21   6     5     4    22    23  
 22   7    24     5    25     6  
 23   8    26     8     7    13  
 24   8    27     8     7    13  
 25   7    26     8    27     7  
 26   5     8    13     9    36  
 27   5     8    13     9    37  
 28   6     8    13    36    37  
 29   6     9    13    36    37  
 30   5     9    15    10    38  
 31   5    10    11    12    32  
 32   5    10    11    12    33  
 33   6    10    11    32    33  
 34   8    30    10    11    15  
 35   8    31    10    11    15  
 36   7    30    10    31    11  
 37   8    34    12    11    14  
 38   8    35    12    11    14  
 39   7    34    12    35    11  
 40   6    12    11    32    33  
 41   7    26     8    27    13  
 42   8    28     9    13    15  
 43   8    29     9    13    15  
 44   7    28     9    29    13  
 45   7    34    12    35    14  
 46   7    16     1    17    15  
 47   7    28     9    29    15  
 48   7    30    10    31    15  
