HEADER,  pre2a.mol  read w/ mol2lmp > atom_typing v1.0 / 16 Jan 2023 w/PCFF-IFF atom-types > all2lmp: v1.4 / 9 Jan 2023  Class: 2

35 atoms
33 bonds
60 angles
73 dihedrals
38 impropers

7 atom types
9 bond types
17 angle types
16 dihedral types
12 improper types

-9.982577143 7.805622857 xlo xhi
-3.789128571 3.682871429 ylo yhi
-3.941774286 2.378825714 zlo zhi

Masses # class2

1   12.01115000  #  c2   
2   12.01115000  #  c3   
3   12.01115000  #  c=   
4   12.01115000  #  c=1  
5    1.00797000  #  h    
6    1.00797000  #  hpan 
7   28.08600000  #  si   

Pair Coeffs  # lj/class2/coul/long

1         0.05400000      4.01000000 #  c2   
2         0.05400000      3.90000000 #  c3   
3         0.06400000      3.90000000 #  c=   
4         0.06400000      4.01000000 #  c=1  
5         0.02000000      2.99500000 #  h    
6         0.02000000      2.30000000 #  hpan 
7         0.19000000      4.45000000 #  si   

Bond Coeffs  # class2

1         1.50600000    312.35170000   -582.18610000    339.89710000 #  c2         c=1   
2         1.10100000    345.00000000   -691.89000000    844.60000000 #  c2        hpan   
3         1.89950000    189.65360000   -279.42100000    307.51350000 #  c2          si   
4         1.10100000    345.00000000   -691.89000000    844.60000000 #  c3        hpan   
5         1.89950000    189.65360000   -279.42100000    307.51350000 #  c3          si   
6         1.34000000    543.99000000  -1238.20250000   1644.02820000 #  c=         c=1   
7         1.08830000    365.76790000   -725.54040000    781.66210000 #  c=        hpan   
8         1.08830000    365.76790000   -725.54040000    781.66210000 #  c=1       hpan   
9         1.47830000    202.77980000   -305.36030000    280.26850000 #  h           si   

Angle Coeffs  # class2

1       126.26000000     43.82500000    -27.72660000      1.00560000 #  c2        c=1         c=   
2       117.27000000     30.09440000     -8.08260000     -8.67810000 #  c2        c=1       hpan   
3       113.18550000     36.20690000    -20.39390000     20.01720000 #  c2         si         c2   
4       113.18550000     36.20690000    -20.39390000     20.01720000 #  c2         si         c3   
5       112.09770000     36.48320000    -12.80940000      0.00000000 #  c2         si          h   
6       112.09770000     36.48320000    -12.80940000      0.00000000 #  c3         si          h   
7       124.88000000     35.27660000    -17.77400000     -1.62150000 #  c=        c=1       hpan   
8       110.06000000     41.27840000    -14.29630000      5.22290000 #  c=1        c2       hpan   
9       112.30000000     34.60000000      0.00000000      0.00000000 #  c=1        c2         si   
10      124.88000000     35.27660000    -17.77400000     -1.62150000 #  c=1        c=       hpan   
11      108.60510000     32.54150000     -8.31640000      0.00000000 #  h          si          h   
12      107.66000000     39.64100000    -12.92100000     -2.43180000 #  hpan       c2       hpan   
13      112.03550000     28.77210000    -13.95230000      0.00000000 #  hpan       c2         si   
14      107.66000000     39.64100000    -12.92100000     -2.43180000 #  hpan       c3       hpan   
15      112.03550000     28.77210000    -13.95230000      0.00000000 #  hpan       c3         si   
16      115.49000000     29.63630000    -12.48530000     -6.22180000 #  hpan       c=       hpan   
17      112.30000000     34.60000000      0.00000000      0.00000000 #  si         c2         si   

Dihedral Coeffs  # class2

1        -0.11430000      0.00000000      0.00000000      0.00000000     -0.13490000      0.00000000 #  hpan       c2       c=1       hpan   
2         0.00000000      0.00000000      0.00000000      0.00000000      0.11110000      0.00000000 #  c=1        c2        si          h   
3         0.00000000      0.00000000      4.89740000      0.00000000      0.00000000      0.00000000 #  hpan       c=       c=1       hpan   
4         0.11430000      0.00000000      0.00000000      0.00000000      0.18540000      0.00000000 #  hpan       c2       c=1         c=   
5         0.00000000      0.00000000      0.00000000      0.00000000      0.21100000      0.00000000 #  c=        c=1        c2         si   
6         0.00000000      0.00000000      0.00000000      0.00000000      0.21100000      0.00000000 #  hpan      c=1        c2         si   
7         0.00000000      0.00000000      5.20970000      0.00000000      0.00000000      0.00000000 #  hpan       c=       c=1         c2   
8         0.00000000      0.00000000      0.00000000      0.00000000      0.11110000      0.00000000 #  c=1        c2        si         c2   
9         0.00000000      0.00000000      0.00000000      0.00000000     -0.06570000      0.00000000 #  hpan       c2        si         c2   
10        0.00000000      0.00000000      0.00000000      0.00000000     -0.06570000      0.00000000 #  hpan       c2        si         c3   
11        0.00000000      0.00000000      0.00000000      0.00000000     -0.06570000      0.00000000 #  hpan       c2        si          h   
12        0.00000000      0.00000000      0.00000000      0.00000000      0.11110000      0.00000000 #  si         c2        si         c2   
13        0.00000000      0.00000000      0.00000000      0.00000000      0.11110000      0.00000000 #  si         c2        si          h   
14        0.00000000      0.00000000      0.00000000      0.00000000      0.11110000      0.00000000 #  si         c2        si         c3   
15        0.00000000      0.00000000      0.00000000      0.00000000     -0.06570000      0.00000000 #  hpan       c3        si          h   
16        0.00000000      0.00000000      0.00000000      0.00000000     -0.06570000      0.00000000 #  hpan       c3        si         c2   

Improper Coeffs  # class2

1         2.07650000      0.00000000 #  c2        c=1        c=       hpan     nb==3   
2         2.85610000      0.00000000 #  c=1        c=       hpan      hpan     nb==3   
3         0.00000000      0.00000000 #  c2         si        c2        h       nb!=3   
4         0.00000000      0.00000000 #  c2         si        c3        h       nb!=3   
5         0.00000000      0.00000000 #  c2         si        h         h       nb!=3   
6         0.00000000      0.00000000 #  c3         si        h         h       nb!=3   
7         0.00000000      0.00000000 #  c=1        c2       hpan      hpan     nb!=3   
8         0.00000000      0.00000000 #  c=1        c2       hpan       si      nb!=3   
9         0.00000000      0.00000000 #  hpan       c2       hpan       si      nb!=3   
10        0.00000000      0.00000000 #  hpan       c2        si        si      nb!=3   
11        0.00000000      0.00000000 #  hpan       c3       hpan      hpan     nb!=3   
12        0.00000000      0.00000000 #  hpan       c3       hpan       si      nb!=3   

BondBond Coeffs  # class2

1        17.79130000      1.50600000      1.34000000 #  c2        c=1         c=   
2         3.43940000      1.50600000      1.08830000 #  c2        c=1       hpan   
3         3.74190000      1.89950000      1.89950000 #  c2         si         c2   
4         3.74190000      1.89950000      1.89950000 #  c2         si         c3   
5         3.92640000      1.89950000      1.47830000 #  c2         si          h   
6         3.92640000      1.89950000      1.47830000 #  c3         si          h   
7        10.10470000      1.34000000      1.08830000 #  c=        c=1       hpan   
8         9.99220000      1.50600000      1.10100000 #  c=1        c2       hpan   
9         0.00000000      1.50600000      1.89950000 #  c=1        c2         si   
10       10.10470000      1.34000000      1.08830000 #  c=1        c=       hpan   
11        4.64080000      1.47830000      1.47830000 #  h          si          h   
12        5.33160000      1.10100000      1.10100000 #  hpan       c2       hpan   
13        1.65610000      1.10100000      1.89950000 #  hpan       c2         si   
14        5.33160000      1.10100000      1.10100000 #  hpan       c3       hpan   
15        1.65610000      1.10100000      1.89950000 #  hpan       c3         si   
16        4.85060000      1.08830000      1.08830000 #  hpan       c=       hpan   
17        0.00000000      1.89950000      1.89950000 #  si         c2         si   

BondAngle Coeffs  # class2

1        31.58850000     24.22520000      1.50600000      1.34000000 #  c2        c=1         c=   
2        17.64520000     15.34920000      1.50600000      1.08830000 #  c2        c=1       hpan   
3        18.58050000     18.58050000      1.89950000      1.89950000 #  c2         si         c2   
4        18.58050000     18.58050000      1.89950000      1.89950000 #  c2         si         c3   
5        13.39610000      7.41040000      1.89950000      1.47830000 #  c2         si          h   
6        13.39610000      7.41040000      1.89950000      1.47830000 #  c3         si          h   
7        23.35880000     19.05920000      1.34000000      1.08830000 #  c=        c=1       hpan   
8        20.87670000     14.27410000      1.50600000      1.10100000 #  c=1        c2       hpan   
9         0.00000000      0.00000000      1.50600000      1.89950000 #  c=1        c2         si   
10       23.35880000     19.05920000      1.34000000      1.08830000 #  c=1        c=       hpan   
11        9.34670000      9.34670000      1.47830000      1.47830000 #  h          si          h   
12       18.10300000     18.10300000      1.10100000      1.10100000 #  hpan       c2       hpan   
13       16.69080000     18.27640000      1.10100000      1.89950000 #  hpan       c2         si   
14       18.10300000     18.10300000      1.10100000      1.10100000 #  hpan       c3       hpan   
15       16.69080000     18.27640000      1.10100000      1.89950000 #  hpan       c3         si   
16       17.97950000     17.97950000      1.08830000      1.08830000 #  hpan       c=       hpan   
17        0.00000000      0.00000000      1.89950000      1.89950000 #  si         c2         si   

AngleAngleTorsion Coeffs  # class2

1       -10.95120000    110.06000000    117.27000000 #  hpan       c2       c=1       hpan   
2         0.00000000    112.30000000    112.09770000 #  c=1        c2        si          h   
3        -7.00580000    124.88000000    124.88000000 #  hpan       c=       c=1       hpan   
4       -13.68260000    110.06000000    126.26000000 #  hpan       c2       c=1         c=   
5         0.00000000    126.26000000    112.30000000 #  c=        c=1        c2         si   
6         0.00000000    117.27000000    112.30000000 #  hpan      c=1        c2         si   
7        -7.69120000    124.88000000    126.26000000 #  hpan       c=       c=1         c2   
8         0.00000000    112.30000000    113.18550000 #  c=1        c2        si         c2   
9       -17.58020000    112.03550000    113.18550000 #  hpan       c2        si         c2   
10      -17.58020000    112.03550000    113.18550000 #  hpan       c2        si         c3   
11      -12.93410000    112.03550000    112.09770000 #  hpan       c2        si          h   
12        0.00000000    112.30000000    113.18550000 #  si         c2        si         c2   
13        0.00000000    112.30000000    112.09770000 #  si         c2        si          h   
14        0.00000000    112.30000000    113.18550000 #  si         c2        si         c3   
15      -12.93410000    112.03550000    112.09770000 #  hpan       c3        si          h   
16      -17.58020000    112.03550000    113.18550000 #  hpan       c3        si         c2   

EndBondTorsion Coeffs  # class2

1         0.22120000      0.00000000      0.09150000      0.59340000      0.00000000      0.04240000      1.10100000      1.08830000 #  hpan       c2       c=1       hpan   
2         0.00000000      0.00000000      0.00000000      0.00000000      0.00000000      0.00000000      1.50600000      1.47830000 #  c=1        c2        si          h   
3         0.71290000      0.51610000      0.00000000      0.71290000      0.51610000      0.00000000      1.08830000      1.08830000 #  hpan       c=       c=1       hpan   
4         1.97870000      0.00000000     -0.18050000      0.85660000      0.00000000      0.08110000      1.10100000      1.34000000 #  hpan       c2       c=1         c=   
5         0.00000000      0.00000000      0.00000000      0.00000000      0.00000000      0.00000000      1.34000000      1.89950000 #  c=        c=1        c2         si   
6         0.00000000      0.00000000      0.00000000      0.00000000      0.00000000      0.00000000      1.08830000      1.89950000 #  hpan      c=1        c2         si   
7         0.54060000     -0.16110000      0.00000000     -0.22010000      0.67700000      0.00000000      1.08830000      1.50600000 #  hpan       c=       c=1         c2   
8         0.00000000      0.00000000      0.00000000      0.00000000      0.00000000      0.00000000      1.50600000      1.89950000 #  c=1        c2        si         c2   
9         0.00000000      0.00000000      0.00000000      0.00000000      0.00000000      0.00000000      1.10100000      1.89950000 #  hpan       c2        si         c2   
10        0.00000000      0.00000000      0.00000000      0.00000000      0.00000000      0.00000000      1.10100000      1.89950000 #  hpan       c2        si         c3   
11        0.00000000      0.00000000      0.00000000      0.00000000      0.00000000      0.00000000      1.10100000      1.47830000 #  hpan       c2        si          h   
12        0.00000000      0.00000000      0.00000000      0.00000000      0.00000000      0.00000000      1.89950000      1.89950000 #  si         c2        si         c2   
13        0.00000000      0.00000000      0.00000000      0.00000000      0.00000000      0.00000000      1.89950000      1.47830000 #  si         c2        si          h   
14        0.00000000      0.00000000      0.00000000      0.00000000      0.00000000      0.00000000      1.89950000      1.89950000 #  si         c2        si         c3   
15        0.00000000      0.00000000      0.00000000      0.00000000      0.00000000      0.00000000      1.10100000      1.47830000 #  hpan       c3        si          h   
16        0.00000000      0.00000000      0.00000000      0.00000000      0.00000000      0.00000000      1.10100000      1.89950000 #  hpan       c3        si         c2   

MiddleBondTorsion Coeffs  # class2

1         1.87300000      0.00000000     -0.37020000      1.50600000 #  hpan       c2       c=1       hpan   
2         0.00000000      0.00000000      0.00000000      1.89950000 #  c=1        c2        si          h   
3         0.85580000      6.39110000      0.00000000      1.34000000 #  hpan       c=       c=1       hpan   
4        -1.57270000      0.00000000      0.65650000      1.50600000 #  hpan       c2       c=1         c=   
5         0.00000000      0.00000000      0.00000000      1.50600000 #  c=        c=1        c2         si   
6         0.00000000      0.00000000      0.00000000      1.50600000 #  hpan      c=1        c2         si   
7         1.12200000      6.06690000      0.00000000      1.34000000 #  hpan       c=       c=1         c2   
8         0.00000000      0.00000000      0.00000000      1.89950000 #  c=1        c2        si         c2   
9         0.00000000      0.00000000      0.00000000      1.89950000 #  hpan       c2        si         c2   
10        0.00000000      0.00000000      0.00000000      1.89950000 #  hpan       c2        si         c3   
11        0.00000000      0.00000000     -0.59060000      1.89950000 #  hpan       c2        si          h   
12        0.00000000      0.00000000      0.00000000      1.89950000 #  si         c2        si         c2   
13        0.00000000      0.00000000      0.00000000      1.89950000 #  si         c2        si          h   
14        0.00000000      0.00000000      0.00000000      1.89950000 #  si         c2        si         c3   
15        0.00000000      0.00000000     -0.59060000      1.89950000 #  hpan       c3        si          h   
16        0.00000000      0.00000000      0.00000000      1.89950000 #  hpan       c3        si         c2   

BondBond13 Coeffs  # class2

1         0.00000000      1.10100000      1.08830000 #  hpan       c2       c=1       hpan   
2         0.00000000      1.50600000      1.47830000 #  c=1        c2        si          h   
3         0.00000000      1.08830000      1.08830000 #  hpan       c=       c=1       hpan   
4         0.00000000      1.10100000      1.34000000 #  hpan       c2       c=1         c=   
5         0.00000000      1.34000000      1.89950000 #  c=        c=1        c2         si   
6         0.00000000      1.08830000      1.89950000 #  hpan      c=1        c2         si   
7         0.00000000      1.08830000      1.50600000 #  hpan       c=       c=1         c2   
8         0.00000000      1.50600000      1.89950000 #  c=1        c2        si         c2   
9         0.00000000      1.10100000      1.89950000 #  hpan       c2        si         c2   
10        0.00000000      1.10100000      1.89950000 #  hpan       c2        si         c3   
11        0.00000000      1.10100000      1.47830000 #  hpan       c2        si          h   
12        0.00000000      1.89950000      1.89950000 #  si         c2        si         c2   
13        0.00000000      1.89950000      1.47830000 #  si         c2        si          h   
14        0.00000000      1.89950000      1.89950000 #  si         c2        si         c3   
15        0.00000000      1.10100000      1.47830000 #  hpan       c3        si          h   
16        0.00000000      1.10100000      1.89950000 #  hpan       c3        si         c2   

AngleTorsion Coeffs  # class2

1         1.90610000      0.00000000      0.00000000     -0.06770000      0.00000000      0.00000000    110.06000000    117.27000000 #  hpan       c2       c=1       hpan   
2         0.00000000      0.00000000      0.00000000      0.00000000      0.00000000      0.00000000    112.30000000    112.09770000 #  c=1        c2        si          h   
3        -1.89110000      3.25400000      0.00000000     -1.89110000      3.25400000      0.00000000    124.88000000    124.88000000 #  hpan       c=       c=1       hpan   
4         1.59820000      0.00000000      0.00000000     -1.88730000      0.00000000      0.00000000    110.06000000    126.26000000 #  hpan       c2       c=1         c=   
5         0.00000000      0.00000000      0.00000000      0.00000000      0.00000000      0.00000000    126.26000000    112.30000000 #  c=        c=1        c2         si   
6         0.00000000      0.00000000      0.00000000      0.00000000      0.00000000      0.00000000    117.27000000    112.30000000 #  hpan      c=1        c2         si   
7        -1.51760000      3.71120000      0.00000000     -5.40820000      1.47310000      0.00000000    124.88000000    126.26000000 #  hpan       c=       c=1         c2   
8         0.00000000      0.00000000      0.00000000      0.00000000      0.00000000      0.00000000    112.30000000    113.18550000 #  c=1        c2        si         c2   
9         0.00000000      0.00000000      0.33820000      0.00000000      0.00000000      0.42720000    112.03550000    113.18550000 #  hpan       c2        si         c2   
10        0.00000000      0.00000000      0.33820000      0.00000000      0.00000000      0.42720000    112.03550000    113.18550000 #  hpan       c2        si         c3   
11        0.00000000      0.00000000      0.00000000      0.00000000      0.00000000     -0.14230000    112.03550000    112.09770000 #  hpan       c2        si          h   
12        0.00000000      0.00000000      0.00000000      0.00000000      0.00000000      0.00000000    112.30000000    113.18550000 #  si         c2        si         c2   
13        0.00000000      0.00000000      0.00000000      0.00000000      0.00000000      0.00000000    112.30000000    112.09770000 #  si         c2        si          h   
14        0.00000000      0.00000000      0.00000000      0.00000000      0.00000000      0.00000000    112.30000000    113.18550000 #  si         c2        si         c3   
15        0.00000000      0.00000000      0.00000000      0.00000000      0.00000000     -0.14230000    112.03550000    112.09770000 #  hpan       c3        si          h   
16        0.00000000      0.00000000      0.33820000      0.00000000      0.00000000      0.42720000    112.03550000    113.18550000 #  hpan       c3        si         c2   

AngleAngle Coeffs  # class2

1         0.00000000      0.00000000      0.00000000    126.26000000    124.88000000    117.27000000 #  c2        c=1        c=       hpan     nb==3   
2         0.00000000      0.00000000      0.00000000    124.88000000    115.49000000    124.88000000 #  c=1        c=       hpan      hpan     nb==3   
3         3.38270000      3.38270000      2.79630000    113.18550000    112.09770000    112.09770000 #  c2         si        c2        h       nb!=3   
4         3.38270000      3.38270000      2.79630000    113.18550000    112.09770000    112.09770000 #  c2         si        c3        h       nb!=3   
5         4.45590000      4.68090000      4.45590000    112.09770000    112.09770000    108.60510000 #  c2         si        h         h       nb!=3   
6         4.45590000      4.68090000      4.45590000    112.09770000    112.09770000    108.60510000 #  c3         si        h         h       nb!=3   
7        -0.11410000     -8.24640000     -0.11410000    110.06000000    110.06000000    107.66000000 #  c=1        c2       hpan      hpan     nb!=3   
8         0.00000000      0.00000000      0.00000000    110.06000000    112.03550000    112.30000000 #  c=1        c2       hpan       si      nb!=3   
9         0.00000000      0.00000000      2.20500000    107.66000000    112.03550000    112.03550000 #  hpan       c2       hpan       si      nb!=3   
10        0.00000000      0.00000000      0.00000000    112.03550000    112.30000000    112.03550000 #  hpan       c2        si        si      nb!=3   
11       -0.31570000     -0.31570000     -0.31570000    107.66000000    107.66000000    107.66000000 #  hpan       c3       hpan      hpan     nb!=3   
12        0.00000000      0.00000000      2.20500000    107.66000000    112.03550000    112.03550000 #  hpan       c3       hpan       si      nb!=3   

Atoms # full

 1  2  1   -0.135000   -9.732577143     0.191871429     0.912425714      0    0    0 #  c2/C
 2  2  1   -0.376000   -6.678877143     0.513871429     0.912425714      0    0    0 #  c2/C
 3  2  7    0.522000   -5.038277143    -0.404228571     0.912425714      0    0    0 #  si/Si
 4  2  2   -0.294000   -3.625277143     0.835771429     0.912425714      0    0    0 #  c3/C
 5  2  7    0.522000   -8.091977143    -0.726228571     0.912425714      0    0    0 #  si/Si
 6  2  6    0.053000   -6.746277143     1.152171429     0.003125714      0    0    0 #  hpan/H
 7  2  6    0.053000   -6.746277143     1.152771429     1.821225714      0    0    0 #  hpan/H
 8  2  5   -0.126000   -4.948277143    -1.258228571     2.128825714      0    0    0 #  h/H
 9  2  5   -0.126000   -4.948177143    -1.259028571    -0.303374286      0    0    0 #  h/H
10  2  6    0.053000   -2.653977143     0.292271429     0.912425714      0    0    0 #  hpan/H
11  2  6    0.053000   -3.692577143     1.474171429     0.003125714      0    0    0 #  hpan/H
12  2  6    0.053000   -3.692677143     1.474771429     1.821225714      0    0    0 #  hpan/H
13  2  5   -0.126000   -8.001877143    -1.580228571     2.128825714      0    0    0 #  h/H
14  2  5   -0.126000   -8.001877143    -1.581028571    -0.303374286      0    0    0 #  h/H
15  1  4   -0.126800    1.956522857     2.332871429     0.912425714      0    0    0 #  c=1/C
16  1  1   -0.241000    3.252922857     1.584371429     0.912425714      0    0    0 #  c2/C
17  1  7    0.522000    3.353322857     0.503171429    -0.622274286      0    0    0 #  si/Si
18  1  1   -0.376000    4.981422857    -0.436828571    -0.622274286      0    0    0 #  c2/C
19  1  7    0.522000    5.081922857    -1.517928571    -2.157074286      0    0    0 #  si/Si
20  1  1   -0.376000    6.710022857    -2.458028571    -2.157074286      0    0    0 #  c2/C
21  1  7    0.135000    6.810422857    -3.539128571    -3.691774286      0    0    0 #  si/Si
22  1  3   -0.253600    0.798622857     1.664371429     0.912425714      0    0    0 #  c=/C
23  1  6    0.126800    1.956522857     3.432871429     0.912425714      0    0    0 #  hpan/H
24  1  6    0.053000    4.098522857     2.308071429     0.911725714      0    0    0 #  hpan/H
25  1  6    0.053000    3.311722857     0.944571429     1.821225714      0    0    0 #  hpan/H
26  1  5   -0.126000    2.222122857    -0.464928571    -0.621474286      0    0    0 #  h/H
27  1  5   -0.126000    3.274722857     1.359171429    -1.838174286      0    0    0 #  h/H
28  1  6    0.053000    5.827022857     0.286871429    -0.622974286      0    0    0 #  hpan/H
29  1  6    0.053000    5.040222857    -1.076628571     0.286525714      0    0    0 #  hpan/H
30  1  5   -0.126000    3.950622857    -2.486128571    -2.156174286      0    0    0 #  h/H
31  1  5   -0.126000    5.003222857    -0.662028571    -3.372874286      0    0    0 #  h/H
32  1  6    0.053000    7.555622857    -1.734328571    -2.157774286      0    0    0 #  hpan/H
33  1  6    0.053000    6.768822857    -3.097828571    -1.248274286      0    0    0 #  hpan/H
34  1  6    0.126800   -0.153977143     2.214371429     0.912425714      0    0    0 #  hpan/H
35  1  6    0.126800    0.798622857     0.564371429     0.912425714      0    0    0 #  hpan/H

Bonds

  1   3     1     5  
  2   3     2     3  
  3   3     2     5  
  4   2     2     6  
  5   2     2     7  
  6   5     4     3  
  7   9     8     3  
  8   9     9     3  
  9   4     4    10  
 10   4     4    11  
 11   4     4    12  
 12   9    13     5  
 13   9    14     5  
 14   1    16    15  
 15   6    22    15  
 16   8    15    23  
 17   3    16    17  
 18   2    16    24  
 19   2    16    25  
 20   3    18    17  
 21   9    26    17  
 22   9    27    17  
 23   3    18    19  
 24   2    18    28  
 25   2    18    29  
 26   3    20    19  
 27   9    30    19  
 28   9    31    19  
 29   3    20    21  
 30   2    20    32  
 31   2    20    33  
 32   7    22    34  
 33   7    22    35  

Angles

  1   3     1     5     2  
  2   5     1     5    13  
  3   5     1     5    14  
  4   4     2     3     4  
  5   5     2     3     8  
  6   5     2     3     9  
  7   5     2     5    13  
  8   5     2     5    14  
  9   17    3     2     5  
 10   13    6     2     3  
 11   13    7     2     3  
 12   15   10     4     3  
 13   15   11     4     3  
 14   15   12     4     3  
 15   6     4     3     8  
 16   6     4     3     9  
 17   13    6     2     5  
 18   13    7     2     5  
 19   12    6     2     7  
 20   11    8     3     9  
 21   14   10     4    11  
 22   14   10     4    12  
 23   14   11     4    12  
 24   11   13     5    14  
 25   9    15    16    17  
 26   8    15    16    24  
 27   8    15    16    25  
 28   10   15    22    34  
 29   10   15    22    35  
 30   1    16    15    22  
 31   2    16    15    23  
 32   3    16    17    18  
 33   5    16    17    26  
 34   5    16    17    27  
 35   13   24    16    17  
 36   13   25    16    17  
 37   17   17    18    19  
 38   13   28    18    17  
 39   13   29    18    17  
 40   5    18    17    26  
 41   5    18    17    27  
 42   3    18    19    20  
 43   5    18    19    30  
 44   5    18    19    31  
 45   13   28    18    19  
 46   13   29    18    19  
 47   17   19    20    21  
 48   13   32    20    19  
 49   13   33    20    19  
 50   5    20    19    30  
 51   5    20    19    31  
 52   13   32    20    21  
 53   13   33    20    21  
 54   7    22    15    23  
 55   12   24    16    25  
 56   11   26    17    27  
 57   12   28    18    29  
 58   11   30    19    31  
 59   12   32    20    33  
 60   16   34    22    35  

Dihedrals

  1   12    3     2     5     1  
  2   9     6     2     5     1  
  3   9     7     2     5     1  
  4   16   10     4     3     2  
  5   16   11     4     3     2  
  6   16   12     4     3     2  
  7   13    3     2     5    13  
  8   13    3     2     5    14  
  9   14    5     2     3     4  
 10   10    6     2     3     4  
 11   10    7     2     3     4  
 12   13    5     2     3     8  
 13   13    5     2     3     9  
 14   11    6     2     3     8  
 15   11    6     2     3     9  
 16   11    6     2     5    13  
 17   11    6     2     5    14  
 18   11    7     2     3     8  
 19   11    7     2     3     9  
 20   11    7     2     5    13  
 21   11    7     2     5    14  
 22   15   10     4     3     8  
 23   15   11     4     3     8  
 24   15   12     4     3     8  
 25   15   10     4     3     9  
 26   15   11     4     3     9  
 27   15   12     4     3     9  
 28   8    15    16    17    18  
 29   2    15    16    17    26  
 30   2    15    16    17    27  
 31   7    34    22    15    16  
 32   7    35    22    15    16  
 33   12   19    18    17    16  
 34   9    28    18    17    16  
 35   9    29    18    17    16  
 36   5    22    15    16    17  
 37   6    23    15    16    17  
 38   12   17    18    19    20  
 39   13   17    18    19    30  
 40   13   17    18    19    31  
 41   9    24    16    17    18  
 42   9    25    16    17    18  
 43   12   21    20    19    18  
 44   9    32    20    19    18  
 45   9    33    20    19    18  
 46   13   19    18    17    26  
 47   13   19    18    17    27  
 48   9    28    18    19    20  
 49   9    29    18    19    20  
 50   13   21    20    19    30  
 51   13   21    20    19    31  
 52   4    24    16    15    22  
 53   4    25    16    15    22  
 54   1    24    16    15    23  