HEADER,  pre1b.mol  read w/ mol2lmp > atom_typing v1.0 / 16 Jan 2023 w/PCFF-IFF atom-types > all2lmp: v1.4 / 9 Jan 2023  Class: 2 > BondingIDs = [4, 24, 17, 1]

41 atoms
39 bonds
72 angles
91 dihedrals
46 impropers

6 atom types
7 bond types
13 angle types
12 dihedral types
9 improper types

-11.578519512 9.371880488 xlo xhi
-3.280765854 2.936034146 ylo yhi
-3.810548781 2.000051219 zlo zhi

Masses # class2

1   12.01115000  #  c2   
2   12.01115000  #  c=   
3   12.01115000  #  c=1  
4    1.00797000  #  h    
5    1.00797000  #  hpan 
6   28.08600000  #  si   

Pair Coeffs  # lj/class2/coul/long

1         0.05400000      4.01000000 #  c2   
2         0.06400000      3.90000000 #  c=   
3         0.06400000      4.01000000 #  c=1  
4         0.02000000      2.99500000 #  h    
5         0.02000000      2.30000000 #  hpan 
6         0.19000000      4.45000000 #  si   

Bond Coeffs  # class2

1         1.50600000    312.35170000   -582.18610000    339.89710000 #  c2         c=1   
2         1.10100000    345.00000000   -691.89000000    844.60000000 #  c2        hpan   
3         1.89950000    189.65360000   -279.42100000    307.51350000 #  c2          si   
4         1.34000000    543.99000000  -1238.20250000   1644.02820000 #  c=         c=1   
5         1.08830000    365.76790000   -725.54040000    781.66210000 #  c=        hpan   
6         1.08830000    365.76790000   -725.54040000    781.66210000 #  c=1       hpan   
7         1.47830000    202.77980000   -305.36030000    280.26850000 #  h           si   

Angle Coeffs  # class2

1       126.26000000     43.82500000    -27.72660000      1.00560000 #  c2        c=1         c=   
2       117.27000000     30.09440000     -8.08260000     -8.67810000 #  c2        c=1       hpan   
3       113.18550000     36.20690000    -20.39390000     20.01720000 #  c2         si         c2   
4       112.09770000     36.48320000    -12.80940000      0.00000000 #  c2         si          h   
5       124.88000000     35.27660000    -17.77400000     -1.62150000 #  c=        c=1       hpan   
6       110.06000000     41.27840000    -14.29630000      5.22290000 #  c=1        c2       hpan   
7       112.30000000     34.60000000      0.00000000      0.00000000 #  c=1        c2         si   
8       124.88000000     35.27660000    -17.77400000     -1.62150000 #  c=1        c=       hpan   
9       108.60510000     32.54150000     -8.31640000      0.00000000 #  h          si          h   
10      107.66000000     39.64100000    -12.92100000     -2.43180000 #  hpan       c2       hpan   
11      112.03550000     28.77210000    -13.95230000      0.00000000 #  hpan       c2         si   
12      115.49000000     29.63630000    -12.48530000     -6.22180000 #  hpan       c=       hpan   
13      112.30000000     34.60000000      0.00000000      0.00000000 #  si         c2         si   

Dihedral Coeffs  # class2

1        -0.11430000      0.00000000      0.00000000      0.00000000     -0.13490000      0.00000000 #  hpan       c2       c=1       hpan   
2         0.00000000      0.00000000      0.00000000      0.00000000      0.11110000      0.00000000 #  c=1        c2        si          h   
3         0.00000000      0.00000000      4.89740000      0.00000000      0.00000000      0.00000000 #  hpan       c=       c=1       hpan   
4         0.11430000      0.00000000      0.00000000      0.00000000      0.18540000      0.00000000 #  hpan       c2       c=1         c=   
5         0.00000000      0.00000000      0.00000000      0.00000000      0.21100000      0.00000000 #  hpan      c=1        c2         si   
6         0.00000000      0.00000000      0.00000000      0.00000000      0.21100000      0.00000000 #  c=        c=1        c2         si   
7         0.00000000      0.00000000      5.20970000      0.00000000      0.00000000      0.00000000 #  hpan       c=       c=1         c2   
8         0.00000000      0.00000000      0.00000000      0.00000000      0.11110000      0.00000000 #  c=1        c2        si         c2   
9         0.00000000      0.00000000      0.00000000      0.00000000     -0.06570000      0.00000000 #  hpan       c2        si          h   
10        0.00000000      0.00000000      0.00000000      0.00000000     -0.06570000      0.00000000 #  hpan       c2        si         c2   
11        0.00000000      0.00000000      0.00000000      0.00000000      0.11110000      0.00000000 #  si         c2        si          h   
12        0.00000000      0.00000000      0.00000000      0.00000000      0.11110000      0.00000000 #  si         c2        si         c2   

Improper Coeffs  # class2

1         2.07650000      0.00000000 #  c2        c=1        c=       hpan     nb==3   
2         2.85610000      0.00000000 #  c=1        c=       hpan      hpan     nb==3   
3         0.00000000      0.00000000 #  c2         si        c2        c2      nb!=3   
4         0.00000000      0.00000000 #  c2         si        c2        h       nb!=3   
5         0.00000000      0.00000000 #  c2         si        h         h       nb!=3   
6         0.00000000      0.00000000 #  c=1        c2       hpan      hpan     nb!=3   
7         0.00000000      0.00000000 #  c=1        c2       hpan       si      nb!=3   
8         0.00000000      0.00000000 #  hpan       c2       hpan       si      nb!=3   
9         0.00000000      0.00000000 #  hpan       c2        si        si      nb!=3   

BondBond Coeffs  # class2

1        17.79130000      1.50600000      1.34000000 #  c2        c=1         c=   
2         3.43940000      1.50600000      1.08830000 #  c2        c=1       hpan   
3         3.74190000      1.89950000      1.89950000 #  c2         si         c2   
4         3.92640000      1.89950000      1.47830000 #  c2         si          h   
5        10.10470000      1.34000000      1.08830000 #  c=        c=1       hpan   
6         9.99220000      1.50600000      1.10100000 #  c=1        c2       hpan   
7         0.00000000      1.50600000      1.89950000 #  c=1        c2         si   
8        10.10470000      1.34000000      1.08830000 #  c=1        c=       hpan   
9         4.64080000      1.47830000      1.47830000 #  h          si          h   
10        5.33160000      1.10100000      1.10100000 #  hpan       c2       hpan   
11        1.65610000      1.10100000      1.89950000 #  hpan       c2         si   
12        4.85060000      1.08830000      1.08830000 #  hpan       c=       hpan   
13        0.00000000      1.89950000      1.89950000 #  si         c2         si   

BondAngle Coeffs  # class2

1        31.58850000     24.22520000      1.50600000      1.34000000 #  c2        c=1         c=   
2        17.64520000     15.34920000      1.50600000      1.08830000 #  c2        c=1       hpan   
3        18.58050000     18.58050000      1.89950000      1.89950000 #  c2         si         c2   
4        13.39610000      7.41040000      1.89950000      1.47830000 #  c2         si          h   
5        23.35880000     19.05920000      1.34000000      1.08830000 #  c=        c=1       hpan   
6        20.87670000     14.27410000      1.50600000      1.10100000 #  c=1        c2       hpan   
7         0.00000000      0.00000000      1.50600000      1.89950000 #  c=1        c2         si   
8        23.35880000     19.05920000      1.34000000      1.08830000 #  c=1        c=       hpan   
9         9.34670000      9.34670000      1.47830000      1.47830000 #  h          si          h   
10       18.10300000     18.10300000      1.10100000      1.10100000 #  hpan       c2       hpan   
11       16.69080000     18.27640000      1.10100000      1.89950000 #  hpan       c2         si   
12       17.97950000     17.97950000      1.08830000      1.08830000 #  hpan       c=       hpan   
13        0.00000000      0.00000000      1.89950000      1.89950000 #  si         c2         si   

AngleAngleTorsion Coeffs  # class2

1       -10.95120000    110.06000000    117.27000000 #  hpan       c2       c=1       hpan   
2         0.00000000    112.30000000    112.09770000 #  c=1        c2        si          h   
3        -7.00580000    124.88000000    124.88000000 #  hpan       c=       c=1       hpan   
4       -13.68260000    110.06000000    126.26000000 #  hpan       c2       c=1         c=   
5         0.00000000    117.27000000    112.30000000 #  hpan      c=1        c2         si   
6         0.00000000    126.26000000    112.30000000 #  c=        c=1        c2         si   
7        -7.69120000    124.88000000    126.26000000 #  hpan       c=       c=1         c2   
8         0.00000000    112.30000000    113.18550000 #  c=1        c2        si         c2   
9       -12.93410000    112.03550000    112.09770000 #  hpan       c2        si          h   
10      -17.58020000    112.03550000    113.18550000 #  hpan       c2        si         c2   
11        0.00000000    112.30000000    112.09770000 #  si         c2        si          h   
12        0.00000000    112.30000000    113.18550000 #  si         c2        si         c2   

EndBondTorsion Coeffs  # class2

1         0.22120000      0.00000000      0.09150000      0.59340000      0.00000000      0.04240000      1.10100000      1.08830000 #  hpan       c2       c=1       hpan   
2         0.00000000      0.00000000      0.00000000      0.00000000      0.00000000      0.00000000      1.50600000      1.47830000 #  c=1        c2        si          h   
3         0.71290000      0.51610000      0.00000000      0.71290000      0.51610000      0.00000000      1.08830000      1.08830000 #  hpan       c=       c=1       hpan   
4         1.97870000      0.00000000     -0.18050000      0.85660000      0.00000000      0.08110000      1.10100000      1.34000000 #  hpan       c2       c=1         c=   
5         0.00000000      0.00000000      0.00000000      0.00000000      0.00000000      0.00000000      1.08830000      1.89950000 #  hpan      c=1        c2         si   
6         0.00000000      0.00000000      0.00000000      0.00000000      0.00000000      0.00000000      1.34000000      1.89950000 #  c=        c=1        c2         si   
7         0.54060000     -0.16110000      0.00000000     -0.22010000      0.67700000      0.00000000      1.08830000      1.50600000 #  hpan       c=       c=1         c2   
8         0.00000000      0.00000000      0.00000000      0.00000000      0.00000000      0.00000000      1.50600000      1.89950000 #  c=1        c2        si         c2   
9         0.00000000      0.00000000      0.00000000      0.00000000      0.00000000      0.00000000      1.10100000      1.47830000 #  hpan       c2        si          h   
10        0.00000000      0.00000000      0.00000000      0.00000000      0.00000000      0.00000000      1.10100000      1.89950000 #  hpan       c2        si         c2   
11        0.00000000      0.00000000      0.00000000      0.00000000      0.00000000      0.00000000      1.89950000      1.47830000 #  si         c2        si          h   
12        0.00000000      0.00000000      0.00000000      0.00000000      0.00000000      0.00000000      1.89950000      1.89950000 #  si         c2        si         c2   

MiddleBondTorsion Coeffs  # class2

1         1.87300000      0.00000000     -0.37020000      1.50600000 #  hpan       c2       c=1       hpan   
2         0.00000000      0.00000000      0.00000000      1.89950000 #  c=1        c2        si          h   
3         0.85580000      6.39110000      0.00000000      1.34000000 #  hpan       c=       c=1       hpan   
4        -1.57270000      0.00000000      0.65650000      1.50600000 #  hpan       c2       c=1         c=   
5         0.00000000      0.00000000      0.00000000      1.50600000 #  hpan      c=1        c2         si   
6         0.00000000      0.00000000      0.00000000      1.50600000 #  c=        c=1        c2         si   
7         1.12200000      6.06690000      0.00000000      1.34000000 #  hpan       c=       c=1         c2   
8         0.00000000      0.00000000      0.00000000      1.89950000 #  c=1        c2        si         c2   
9         0.00000000      0.00000000     -0.59060000      1.89950000 #  hpan       c2        si          h   
10        0.00000000      0.00000000      0.00000000      1.89950000 #  hpan       c2        si         c2   
11        0.00000000      0.00000000      0.00000000      1.89950000 #  si         c2        si          h   
12        0.00000000      0.00000000      0.00000000      1.89950000 #  si         c2        si         c2   

BondBond13 Coeffs  # class2

1         0.00000000      1.10100000      1.08830000 #  hpan       c2       c=1       hpan   
2         0.00000000      1.50600000      1.47830000 #  c=1        c2        si          h   
3         0.00000000      1.08830000      1.08830000 #  hpan       c=       c=1       hpan   
4         0.00000000      1.10100000      1.34000000 #  hpan       c2       c=1         c=   
5         0.00000000      1.08830000      1.89950000 #  hpan      c=1        c2         si   
6         0.00000000      1.34000000      1.89950000 #  c=        c=1        c2         si   
7         0.00000000      1.08830000      1.50600000 #  hpan       c=       c=1         c2   
8         0.00000000      1.50600000      1.89950000 #  c=1        c2        si         c2   
9         0.00000000      1.10100000      1.47830000 #  hpan       c2        si          h   
10        0.00000000      1.10100000      1.89950000 #  hpan       c2        si         c2   
11        0.00000000      1.89950000      1.47830000 #  si         c2        si          h   
12        0.00000000      1.89950000      1.89950000 #  si         c2        si         c2   

AngleTorsion Coeffs  # class2

1         1.90610000      0.00000000      0.00000000     -0.06770000      0.00000000      0.00000000    110.06000000    117.27000000 #  hpan       c2       c=1       hpan   
2         0.00000000      0.00000000      0.00000000      0.00000000      0.00000000      0.00000000    112.30000000    112.09770000 #  c=1        c2        si          h   
3        -1.89110000      3.25400000      0.00000000     -1.89110000      3.25400000      0.00000000    124.88000000    124.88000000 #  hpan       c=       c=1       hpan   
4         1.59820000      0.00000000      0.00000000     -1.88730000      0.00000000      0.00000000    110.06000000    126.26000000 #  hpan       c2       c=1         c=   
5         0.00000000      0.00000000      0.00000000      0.00000000      0.00000000      0.00000000    117.27000000    112.30000000 #  hpan      c=1        c2         si   
6         0.00000000      0.00000000      0.00000000      0.00000000      0.00000000      0.00000000    126.26000000    112.30000000 #  c=        c=1        c2         si   
7        -1.51760000      3.71120000      0.00000000     -5.40820000      1.47310000      0.00000000    124.88000000    126.26000000 #  hpan       c=       c=1         c2   
8         0.00000000      0.00000000      0.00000000      0.00000000      0.00000000      0.00000000    112.30000000    113.18550000 #  c=1        c2        si         c2   
9         0.00000000      0.00000000      0.00000000      0.00000000      0.00000000     -0.14230000    112.03550000    112.09770000 #  hpan       c2        si          h   
10        0.00000000      0.00000000      0.33820000      0.00000000      0.00000000      0.42720000    112.03550000    113.18550000 #  hpan       c2        si         c2   
11        0.00000000      0.00000000      0.00000000      0.00000000      0.00000000      0.00000000    112.30000000    112.09770000 #  si         c2        si          h   
12        0.00000000      0.00000000      0.00000000      0.00000000      0.00000000      0.00000000    112.30000000    113.18550000 #  si         c2        si         c2   

AngleAngle Coeffs  # class2

1         0.00000000      0.00000000      0.00000000    126.26000000    124.88000000    117.27000000 #  c2        c=1        c=       hpan     nb==3   
2         0.00000000      0.00000000      0.00000000    124.88000000    115.49000000    124.88000000 #  c=1        c=       hpan      hpan     nb==3   
3         0.00000000      0.00000000      0.00000000    113.18550000    113.18550000    113.18550000 #  c2         si        c2        c2      nb!=3   
4         3.38270000      3.38270000      2.79630000    113.18550000    112.09770000    112.09770000 #  c2         si        c2        h       nb!=3   
5         4.45590000      4.68090000      4.45590000    112.09770000    112.09770000    108.60510000 #  c2         si        h         h       nb!=3   
6        -0.11410000     -8.24640000     -0.11410000    110.06000000    110.06000000    107.66000000 #  c=1        c2       hpan      hpan     nb!=3   
7         0.00000000      0.00000000      0.00000000    110.06000000    112.03550000    112.30000000 #  c=1        c2       hpan       si      nb!=3   
8         0.00000000      0.00000000      2.20500000    107.66000000    112.03550000    112.03550000 #  hpan       c2       hpan       si      nb!=3   
9         0.00000000      0.00000000      0.00000000    112.03550000    112.30000000    112.03550000 #  hpan       c2        si        si      nb!=3   

Atoms # full

 1  1  6    0.135000   -11.328519512   -0.231865854     0.534251220      0    0    0 #  si/Si
 2  1  1   -0.376000   -9.700319512    -1.171865854     0.534251220      0    0    0 #  c2/C
 3  1  1   -0.376000   -6.642619512    -0.890865854     0.534251220      0    0    0 #  c2/C
 4  1  6    0.522000   -5.213119512     0.330034146     0.534251220      0    0    0 #  si/Si
 5  1  1   -0.376000   -3.585019512    -0.609965854     0.534251220      0    0    0 #  c2/C
 6  1  6    0.522000   -2.155419512     0.610934146     0.534251220      0    0    0 #  si/Si
 7  1  1   -0.376000   -0.527319512    -0.329065854     0.534251220      0    0    0 #  c2/C
 8  1  6    0.522000   -8.270819512     0.049134146     0.534251220      0    0    0 #  si/Si
 9  1  6    0.135000    0.902280488     0.891834146     0.534251220      0    0    0 #  si/Si
10  1  5    0.053000   -9.641619512    -1.811065854     1.443551220      0    0    0 #  hpan/H
11  1  5    0.053000   -9.641619512    -1.811665854    -0.374548780      0    0    0 #  hpan/H
12  1  5    0.053000   -6.583919512    -1.530065854     1.443551220      0    0    0 #  hpan/H
13  1  5    0.053000   -6.583919512    -1.530765854    -0.374548780      0    0    0 #  hpan/H
14  1  4   -0.126000   -5.291619512     1.185134146    -0.682148780      0    0    0 #  h/H
15  1  4   -0.126000   -5.291719512     1.186034146     1.750051220      0    0    0 #  h/H
16  1  5    0.053000   -3.526219512    -1.249165854     1.443551220      0    0    0 #  hpan/H
17  1  5    0.053000   -3.526219512    -1.249865854    -0.374548780      0    0    0 #  hpan/H
18  1  4   -0.126000   -2.233919512     1.466134146    -0.682148780      0    0    0 #  h/H
19  1  4   -0.126000   -2.234019512     1.466934146     1.750051220      0    0    0 #  h/H
20  1  5    0.053000   -0.468519512    -0.968265854     1.443551220      0    0    0 #  hpan/H
21  1  5    0.053000   -0.468519512    -0.968865854    -0.374548780      0    0    0 #  hpan/H
22  1  4   -0.126000   -8.349319512     0.904234146    -0.682148780      0    0    0 #  h/H
23  1  4   -0.126000   -8.349419512     0.905034146     1.750051220      0    0    0 #  h/H
24  2  2   -0.253600    4.354980488     0.917534146     0.534251220      0    0    0 #  c=/C
25  2  3   -0.126800    5.512780488     1.586034146     0.534251220      0    0    0 #  c=1/C
26  2  1   -0.241000    6.809280488     0.837534146     0.534251220      0    0    0 #  c2/C
27  2  6    0.531000    6.909680488    -0.243565854    -1.000448780      0    0    0 #  si/Si
28  2  1   -0.376000    6.810480488     0.836134146    -2.536348780      0    0    0 #  c2/C
29  2  6    0.135000    5.315880488     0.334534146    -3.560548780      0    0    0 #  si/Si
30  2  1   -0.376000    8.538880488    -1.181865854    -0.999448780      0    0    0 #  c2/C
31  2  6    0.135000    8.198180488    -3.030765854    -0.998648780      0    0    0 #  si/Si
32  2  5    0.126800    3.402280488     1.467534146     0.534251220      0    0    0 #  hpan/H
33  2  5    0.126800    4.354980488    -0.182465854     0.534251220      0    0    0 #  hpan/H
34  2  5    0.126800    5.512780488     2.686034146     0.534251220      0    0    0 #  hpan/H
35  2  5    0.053000    7.654880488     1.561234146     0.533551220      0    0    0 #  hpan/H
36  2  5    0.053000    6.868080488     0.197734146     1.443051220      0    0    0 #  hpan/H
37  2  4   -0.126000    5.778080488    -1.211365854    -1.000448780      0    0    0 #  h/H
38  2  5    0.053000    6.711180488     1.902534146    -2.233648780      0    0    0 #  hpan/H
39  2  5    0.053000    7.735480488     0.705934146    -3.141548780      0    0    0 #  hpan/H
40  2  5    0.053000    9.121880488    -0.912965854    -1.908548780      0    0    0 #  hpan/H
41  2  5    0.053000    9.121680488    -0.911865854    -0.090448780      0    0    0 #  hpan/H

Bonds

  1   3     2     1  
  2   3     2     8  
  3   2     2    10  
  4   2     2    11  
  5   3     3     4  
  6   3     3     8  
  7   2     3    12  
  8   2     3    13  
  9   3     5     4  
 10   7    14     4  
 11   7    15     4  
 12   3     5     6  
 13   2     5    16  
 14   2     5    17  
 15   3     7     6  
 16   7    18     6  
 17   7    19     6  
 18   3     7     9  
 19   2     7    20  
 20   2     7    21  
 21   7    22     8  
 22   7    23     8  
 23   4    24    25  
 24   5    24    32  
 25   5    24    33  
 26   1    26    25  
 27   6    25    34  
 28   3    26    27  
 29   2    26    35  
 30   2    26    36  
 31   3    28    27  
 32   3    30    27  
 33   7    37    27  
 34   3    28    29  
 35   2    28    38  
 36   2    28    39  
 37   3    30    31  
 38   2    30    40  
 39   2    30    41  

Angles

  1   13    1     2     8  
  2   11   10     2     1  
  3   11   11     2     1  
  4   3     2     8     3  
  5   4     2     8    22  
  6   4     2     8    23  
  7   3     3     4     5  
  8   4     3     4    14  
  9   4     3     4    15  
 10   4     3     8    22  
 11   4     3     8    23  
 12   13    4     3     8  
 13   11   12     3     4  
 14   11   13     3     4  
 15   13    4     5     6  
 16   11   16     5     4  
 17   11   17     5     4  
 18   4     5     4    14  
 19   4     5     4    15  
 20   3     5     6     7  
 21   4     5     6    18  
 22   4     5     6    19  
 23   11   16     5     6  
 24   11   17     5     6  
 25   13    6     7     9  
 26   11   20     7     6  
 27   11   21     7     6  
 28   4     7     6    18  
 29   4     7     6    19  
 30   11   10     2     8  
 31   11   11     2     8  
 32   11   12     3     8  
 33   11   13     3     8  
 34   11   20     7     9  
 35   11   21     7     9  
 36   10   10     2    11  
 37   10   12     3    13  
 38   9    14     4    15  
 39   10   16     5    17  
 40   9    18     6    19  
 41   10   20     7    21  
 42   9    22     8    23  
 43   1    26    25    24  
 44   5    24    25    34  
 45   8    25    24    32  
 46   8    25    24    33  
 47   7    25    26    27  
 48   6    25    26    35  
 49   6    25    26    36  
 50   2    26    25    34  
 51   3    26    27    28  
 52   3    26    27    30  
 53   4    26    27    37  
 54   11   35    26    27  
 55   11   36    26    27  
 56   13   27    28    29  
 57   11   38    28    27  
 58   11   39    28    27  
 59   13   27    30    31  
 60   11   40    30    27  
 61   11   41    30    27  
 62   3    28    27    30  
 63   4    28    27    37  
 64   11   38    28    29  
 65   11   39    28    29  
 66   4    30    27    37  
 67   11   40    30    31  
 68   11   41    30    31  
 69   12   32    24    33  
 70   10   35    26    36  
 71   10   38    28    39  
 72   10   40    30    41  

Dihedrals

  1   12    1     2     8     3  
  2   11    1     2     8    22  
  3   11    1     2     8    23  
  4   12    4     3     8     2  
  5   10   12     3     8     2  
  6   10   13     3     8     2  
  7   12    6     5     4     3  
  8   10   16     5     4     3  
  9   10   17     5     4     3  
 10   10   10     2     8     3  
 11   10   11     2     8     3  
 12   11    4     3     8    22  
 13   11    4     3     8    23  
 14   12    4     5     6     7  
 15   11    4     5     6    18  
 16   11    4     5     6    19  
 17   12    8     3     4     5  
 18   10   12     3     4     5  
 19   10   13     3     4     5  
 20   12    9     7     6     5  
 21   10   20     7     6     5  
 22   10   21     7     6     5  
 23   11    6     5     4    14  
 24   11    6     5     4    15  
 25   10   16     5     6     7  
 26   10   17     5     6     7  
 27   11    8     3     4    14  
 28   11    8     3     4    15  
 29   11    9     7     6    18  
 30   11    9     7     6    19  
 31   9    10     2     8    22  
 32   9    10     2     8    23  
 33   9    11     2     8    22  
 34   9    11     2     8    23  
 35   9    12     3     4    14  
 36   9    12     3     4    15  
 37   9    12     3     8    22  
 38   9    12     3     8    23  
 39   9    13     3     4    14  
 40   9    13     3     4    15  
 41   9    13     3     8    22  
 42   9    13     3     8    23  
 43   9    16     5     4    14  
 44   9    17     5     4    14  
 45   9    16     5     4    15  
 46   9    17     5     4    15  
 47   9    16     5     6    18  
 48   9    16     5     6    19  
 49   9    17     5     6    18  
 50   9    17     5     6    19  
 51   9    20     7     6    18  
 52   9    21     7     6    18  
 53   9    20     7     6    19  
 54   9    21     7     6    19  
 55   6    24    25    26    27  
 56   4    35    26    25    24  
 57   4    36    26    25    24  
 58   8    25    26    27    28  
 59   8    25    26    27    30  
 60   2    25    26    27    37  
 61   7    32    24    25    26  
 62   7    33    24    25    26  
 63   12   29    28    27    26  
 64   10   38    28    27    26  
 65   10   39    28    27    26  
 66   12   31    30    27    26  
 67   10   40    30    27    26  
 68   10   41    30    27    26  
 69   5    34    25    26    27  
 70   10   35    26    27    28  
 71   10   36    26    27    28  
 72   12   31    30    27    28  
 73   10   40    30    27    28  
 74   10   41    30    27    28  
 75   12   29    28    27    30  
 76   11   29    28    27    37  
 77   10   35    26    27    30  
 78   10   36    26    27    30  
 79   10   38    28    27    30  
 80   10   39    28    27    30  
 81   11   31    30    27    37  
 82   3    32    24    25    34  
 83   3    33    24    25    34  
 84   1    35    26    25    34  
 85   1    36    26    25    34  
 86   9    35    26    27    37  
 87   9    36    26    27    37  
 88   9    38    28    27    37  
 89   9    39    28    27    37  
 90   9    40    30    27    37  
 91   9    41    30    27    37  

Impropers

  1   1    26    25    24    34  
  2   2    25    24    32    33  
  3   9    10     2     1     8  
  4   9    11     2     1     8  
  5   8    10     2    11     1  
  6   4     2     8     3    22  
  7   4     2     8     3    23  
  8   5     2     8    22    23  
  9   4     3     4     5    14  
 10   4     3     4     5    15  
 11   5     3     4    14    15  
 12   5     3     8    22    23  
 13   9    12     3     4     8  
 14   9    13     3     4     8  
 15   8    12     3    13     4  
 16   9    16     5     4     6  
 17   9    17     5     4     6  
 18   8    16     5    17     4  
 19   5     5     4    14    15  
 20   4     5     6     7    18  
 21   4     5     6     7    19  
 22   5     5     6    18    19  
 23   8    16     5    17     6  
 24   9    20     7     6     9  
 25   9    21     7     6     9  
 26   8    20     7    21     6  
 27   5     7     6    18    19  
 28   8    10     2    11     8  
 29   8    12     3    13     8  
 30   8    20     7    21     9  
 31   7    25    26    35    27  
 32   7    25    26    36    27  
 33   6    25    26    35    36  
 34   3    26    27    28    30  
 35   4    26    27    28    37  
 36   4    26    27    30    37  
 37   8    35    26    36    27  
 38   9    38    28    27    29  
 39   9    39    28    27    29  
 40   8    38    28    39    27  
 41   9    40    30    27    31  
 42   9    41    30    27    31  
 43   8    40    30    41    27  
 44   4    28    27    30    37  
 45   8    38    28    39    29  
 46   8    40    30    41    31  
