HEADER,  pre2b.mol  read w/ mol2lmp > atom_typing v1.0 / 16 Jan 2023 w/PCFF-IFF atom-types > all2lmp: v1.4 / 9 Jan 2023  Class: 2

37 atoms
35 bonds
66 angles
81 dihedrals
44 impropers

5 atom types
6 bond types
13 angle types
14 dihedral types
11 improper types

-10.229570270 8.734229730 xlo xhi
-2.784681081 2.981318919 ylo yhi
-2.328924324 3.991075676 zlo zhi

Masses # class2

1   12.01115000  #  c2   
2   12.01115000  #  c3   
3    1.00797000  #  h    
4    1.00797000  #  hpan 
5   28.08600000  #  si   

Pair Coeffs  # lj/class2/coul/long

1         0.05400000      4.01000000 #  c2   
2         0.05400000      3.90000000 #  c3   
3         0.02000000      2.99500000 #  h    
4         0.02000000      2.30000000 #  hpan 
5         0.19000000      4.45000000 #  si   

Bond Coeffs  # class2

1         1.53000000    299.67000000   -501.77000000    679.81000000 #  c2          c2   
2         1.10100000    345.00000000   -691.89000000    844.60000000 #  c2        hpan   
3         1.89950000    189.65360000   -279.42100000    307.51350000 #  c2          si   
4         1.10100000    345.00000000   -691.89000000    844.60000000 #  c3        hpan   
5         1.89950000    189.65360000   -279.42100000    307.51350000 #  c3          si   
6         1.47830000    202.77980000   -305.36030000    280.26850000 #  h           si   

Angle Coeffs  # class2

1       112.67000000     39.51600000     -7.44300000     -9.55830000 #  c2         c2         c2   
2       110.77000000     41.45300000    -10.60400000      5.12900000 #  c2         c2       hpan   
3       112.67000000     39.51600000     -7.44300000      0.00000000 #  c2         c2         si   
4       113.18550000     36.20690000    -20.39390000     20.01720000 #  c2         si         c2   
5       113.18550000     36.20690000    -20.39390000     20.01720000 #  c2         si         c3   
6       112.09770000     36.48320000    -12.80940000      0.00000000 #  c2         si          h   
7       112.09770000     36.48320000    -12.80940000      0.00000000 #  c3         si          h   
8       108.60510000     32.54150000     -8.31640000      0.00000000 #  h          si          h   
9       107.66000000     39.64100000    -12.92100000     -2.43180000 #  hpan       c2       hpan   
10      112.03550000     28.77210000    -13.95230000      0.00000000 #  hpan       c2         si   
11      107.66000000     39.64100000    -12.92100000     -2.43180000 #  hpan       c3       hpan   
12      112.03550000     28.77210000    -13.95230000      0.00000000 #  hpan       c3         si   
13      112.30000000     34.60000000      0.00000000      0.00000000 #  si         c2         si   

Dihedral Coeffs  # class2

1        -0.14320000      0.00000000      0.06170000      0.00000000     -0.10830000      0.00000000 #  hpan       c2        c2       hpan   
2         0.00000000      0.00000000      0.03160000      0.00000000     -0.16810000      0.00000000 #  c2         c2        c2       hpan   
3         0.00000000      0.00000000      0.05140000      0.00000000     -0.14300000      0.00000000 #  c2         c2        c2         si   
4         0.00000000      0.00000000      0.05140000      0.00000000     -0.14300000      0.00000000 #  hpan       c2        c2         si   
5         0.00000000      0.00000000      0.00000000      0.00000000     -0.06570000      0.00000000 #  c2         c2        si         c2   
6         0.00000000      0.00000000      0.00000000      0.00000000     -0.06570000      0.00000000 #  c2         c2        si          h   
7         0.00000000      0.00000000      0.00000000      0.00000000     -0.06570000      0.00000000 #  hpan       c2        si          h   
8         0.00000000      0.00000000      0.00000000      0.00000000     -0.06570000      0.00000000 #  hpan       c2        si         c2   
9         0.00000000      0.00000000      0.00000000      0.00000000     -0.06570000      0.00000000 #  hpan       c2        si         c3   
10        0.00000000      0.00000000      0.00000000      0.00000000      0.11110000      0.00000000 #  si         c2        si         c3   
11        0.00000000      0.00000000      0.00000000      0.00000000      0.11110000      0.00000000 #  si         c2        si          h   
12        0.00000000      0.00000000      0.00000000      0.00000000      0.11110000      0.00000000 #  si         c2        si         c2   
13        0.00000000      0.00000000      0.00000000      0.00000000     -0.06570000      0.00000000 #  hpan       c3        si          h   
14        0.00000000      0.00000000      0.00000000      0.00000000     -0.06570000      0.00000000 #  hpan       c3        si         c2   

Improper Coeffs  # class2

1         0.00000000      0.00000000 #  c2         c2        c2       hpan     nb!=3   
2         0.00000000      0.00000000 #  c2         c2       hpan      hpan     nb!=3   
3         0.00000000      0.00000000 #  c2         c2       hpan       si      nb!=3   
4         0.00000000      0.00000000 #  c2         si        c2        h       nb!=3   
5         0.00000000      0.00000000 #  c2         si        c3        h       nb!=3   
6         0.00000000      0.00000000 #  c2         si        h         h       nb!=3   
7         0.00000000      0.00000000 #  c3         si        h         h       nb!=3   
8         0.00000000      0.00000000 #  hpan       c2       hpan       si      nb!=3   
9         0.00000000      0.00000000 #  hpan       c2        si        si      nb!=3   
10        0.00000000      0.00000000 #  hpan       c3       hpan      hpan     nb!=3   
11        0.00000000      0.00000000 #  hpan       c3       hpan       si      nb!=3   

BondBond Coeffs  # class2

1         0.00000000      1.53000000      1.53000000 #  c2         c2         c2   
2         3.38720000      1.53000000      1.10100000 #  c2         c2       hpan   
3         0.00000000      1.53000000      1.89950000 #  c2         c2         si   
4         3.74190000      1.89950000      1.89950000 #  c2         si         c2   
5         3.74190000      1.89950000      1.89950000 #  c2         si         c3   
6         3.92640000      1.89950000      1.47830000 #  c2         si          h   
7         3.92640000      1.89950000      1.47830000 #  c3         si          h   
8         4.64080000      1.47830000      1.47830000 #  h          si          h   
9         5.33160000      1.10100000      1.10100000 #  hpan       c2       hpan   
10        1.65610000      1.10100000      1.89950000 #  hpan       c2         si   
11        5.33160000      1.10100000      1.10100000 #  hpan       c3       hpan   
12        1.65610000      1.10100000      1.89950000 #  hpan       c3         si   
13        0.00000000      1.89950000      1.89950000 #  si         c2         si   

BondAngle Coeffs  # class2

1         8.01600000      8.01600000      1.53000000      1.53000000 #  c2         c2         c2   
2        20.75400000     11.42100000      1.53000000      1.10100000 #  c2         c2       hpan   
3         0.00000000      0.00000000      1.53000000      1.89950000 #  c2         c2         si   
4        18.58050000     18.58050000      1.89950000      1.89950000 #  c2         si         c2   
5        18.58050000     18.58050000      1.89950000      1.89950000 #  c2         si         c3   
6        13.39610000      7.41040000      1.89950000      1.47830000 #  c2         si          h   
7        13.39610000      7.41040000      1.89950000      1.47830000 #  c3         si          h   
8         9.34670000      9.34670000      1.47830000      1.47830000 #  h          si          h   
9        18.10300000     18.10300000      1.10100000      1.10100000 #  hpan       c2       hpan   
10       16.69080000     18.27640000      1.10100000      1.89950000 #  hpan       c2         si   
11       18.10300000     18.10300000      1.10100000      1.10100000 #  hpan       c3       hpan   
12       16.69080000     18.27640000      1.10100000      1.89950000 #  hpan       c3         si   
13        0.00000000      0.00000000      1.89950000      1.89950000 #  si         c2         si   

AngleAngleTorsion Coeffs  # class2

1       -12.56400000    110.77000000    110.77000000 #  hpan       c2        c2       hpan   
2       -16.16400000    112.67000000    110.77000000 #  c2         c2        c2       hpan   
3         0.00000000    112.67000000    112.67000000 #  c2         c2        c2         si   
4         0.00000000    110.77000000    112.67000000 #  hpan       c2        c2         si   
5         0.00000000    112.67000000    113.18550000 #  c2         c2        si         c2   
6         0.00000000    112.67000000    112.09770000 #  c2         c2        si          h   
7       -12.93410000    112.03550000    112.09770000 #  hpan       c2        si          h   
8       -17.58020000    112.03550000    113.18550000 #  hpan       c2        si         c2   
9       -17.58020000    112.03550000    113.18550000 #  hpan       c2        si         c3   
10        0.00000000    112.30000000    113.18550000 #  si         c2        si         c3   
11        0.00000000    112.30000000    112.09770000 #  si         c2        si          h   
12        0.00000000    112.30000000    113.18550000 #  si         c2        si         c2   
13      -12.93410000    112.03550000    112.09770000 #  hpan       c3        si          h   
14      -17.58020000    112.03550000    113.18550000 #  hpan       c3        si         c2   

EndBondTorsion Coeffs  # class2

1         0.21300000      0.31200000      0.07770000      0.21300000      0.31200000      0.07770000      1.10100000      1.10100000 #  hpan       c2        c2       hpan   
2         0.24860000      0.24220000     -0.09250000      0.08140000      0.05910000      0.22190000      1.53000000      1.10100000 #  c2         c2        c2       hpan   
3         0.00000000      0.00000000      0.00000000      0.00000000      0.00000000      0.00000000      1.53000000      1.89950000 #  c2         c2        c2         si   
4         0.00000000      0.00000000      0.00000000      0.00000000      0.00000000      0.00000000      1.10100000      1.89950000 #  hpan       c2        c2         si   
5         0.00000000      0.00000000      0.00000000      0.00000000      0.00000000      0.00000000      1.53000000      1.89950000 #  c2         c2        si         c2   
6         0.00000000      0.00000000      0.00000000      0.00000000      0.00000000      0.00000000      1.53000000      1.47830000 #  c2         c2        si          h   
7         0.00000000      0.00000000      0.00000000      0.00000000      0.00000000      0.00000000      1.10100000      1.47830000 #  hpan       c2        si          h   
8         0.00000000      0.00000000      0.00000000      0.00000000      0.00000000      0.00000000      1.10100000      1.89950000 #  hpan       c2        si         c2   
9         0.00000000      0.00000000      0.00000000      0.00000000      0.00000000      0.00000000      1.10100000      1.89950000 #  hpan       c2        si         c3   
10        0.00000000      0.00000000      0.00000000      0.00000000      0.00000000      0.00000000      1.89950000      1.89950000 #  si         c2        si         c3   
11        0.00000000      0.00000000      0.00000000      0.00000000      0.00000000      0.00000000      1.89950000      1.47830000 #  si         c2        si          h   
12        0.00000000      0.00000000      0.00000000      0.00000000      0.00000000      0.00000000      1.89950000      1.89950000 #  si         c2        si         c2   
13        0.00000000      0.00000000      0.00000000      0.00000000      0.00000000      0.00000000      1.10100000      1.47830000 #  hpan       c3        si          h   
14        0.00000000      0.00000000      0.00000000      0.00000000      0.00000000      0.00000000      1.10100000      1.89950000 #  hpan       c3        si         c2   

MiddleBondTorsion Coeffs  # class2

1       -14.26100000     -0.53220000     -0.48640000      1.53000000 #  hpan       c2        c2       hpan   
2       -14.87900000     -3.65810000     -0.31380000      1.53000000 #  c2         c2        c2       hpan   
3         0.00000000      0.00000000      0.00000000      1.53000000 #  c2         c2        c2         si   
4         0.00000000      0.00000000      0.00000000      1.53000000 #  hpan       c2        c2         si   
5         0.00000000      0.00000000      0.00000000      1.89950000 #  c2         c2        si         c2   
6         0.00000000      0.00000000      0.00000000      1.89950000 #  c2         c2        si          h   
7         0.00000000      0.00000000     -0.59060000      1.89950000 #  hpan       c2        si          h   
8         0.00000000      0.00000000      0.00000000      1.89950000 #  hpan       c2        si         c2   
9         0.00000000      0.00000000      0.00000000      1.89950000 #  hpan       c2        si         c3   
10        0.00000000      0.00000000      0.00000000      1.89950000 #  si         c2        si         c3   
11        0.00000000      0.00000000      0.00000000      1.89950000 #  si         c2        si          h   
12        0.00000000      0.00000000      0.00000000      1.89950000 #  si         c2        si         c2   
13        0.00000000      0.00000000     -0.59060000      1.89950000 #  hpan       c3        si          h   
14        0.00000000      0.00000000      0.00000000      1.89950000 #  hpan       c3        si         c2   

BondBond13 Coeffs  # class2

1         0.00000000      1.10100000      1.10100000 #  hpan       c2        c2       hpan   
2         0.00000000      1.53000000      1.10100000 #  c2         c2        c2       hpan   
3         0.00000000      1.53000000      1.89950000 #  c2         c2        c2         si   
4         0.00000000      1.10100000      1.89950000 #  hpan       c2        c2         si   
5         0.00000000      1.53000000      1.89950000 #  c2         c2        si         c2   
6         0.00000000      1.53000000      1.47830000 #  c2         c2        si          h   
7         0.00000000      1.10100000      1.47830000 #  hpan       c2        si          h   
8         0.00000000      1.10100000      1.89950000 #  hpan       c2        si         c2   
9         0.00000000      1.10100000      1.89950000 #  hpan       c2        si         c3   
10        0.00000000      1.89950000      1.89950000 #  si         c2        si         c3   
11        0.00000000      1.89950000      1.47830000 #  si         c2        si          h   
12        0.00000000      1.89950000      1.89950000 #  si         c2        si         c2   
13        0.00000000      1.10100000      1.47830000 #  hpan       c3        si          h   
14        0.00000000      1.10100000      1.89950000 #  hpan       c3        si         c2   

AngleTorsion Coeffs  # class2

1        -0.80850000      0.55690000     -0.24660000     -0.80850000      0.55690000     -0.24660000    110.77000000    110.77000000 #  hpan       c2        c2       hpan   
2        -0.24540000      0.00000000     -0.11360000      0.31130000      0.45160000     -0.19880000    112.67000000    110.77000000 #  c2         c2        c2       hpan   
3         0.00000000      0.00000000      0.00000000      0.00000000      0.00000000      0.00000000    112.67000000    112.67000000 #  c2         c2        c2         si   
4         0.00000000      0.00000000      0.00000000      0.00000000      0.00000000      0.00000000    110.77000000    112.67000000 #  hpan       c2        c2         si   
5         0.00000000      0.00000000      0.00000000      0.00000000      0.00000000      0.00000000    112.67000000    113.18550000 #  c2         c2        si         c2   
6         0.00000000      0.00000000      0.00000000      0.00000000      0.00000000      0.00000000    112.67000000    112.09770000 #  c2         c2        si          h   
7         0.00000000      0.00000000      0.00000000      0.00000000      0.00000000     -0.14230000    112.03550000    112.09770000 #  hpan       c2        si          h   
8         0.00000000      0.00000000      0.33820000      0.00000000      0.00000000      0.42720000    112.03550000    113.18550000 #  hpan       c2        si         c2   
9         0.00000000      0.00000000      0.33820000      0.00000000      0.00000000      0.42720000    112.03550000    113.18550000 #  hpan       c2        si         c3   
10        0.00000000      0.00000000      0.00000000      0.00000000      0.00000000      0.00000000    112.30000000    113.18550000 #  si         c2        si         c3   
11        0.00000000      0.00000000      0.00000000      0.00000000      0.00000000      0.00000000    112.30000000    112.09770000 #  si         c2        si          h   
12        0.00000000      0.00000000      0.00000000      0.00000000      0.00000000      0.00000000    112.30000000    113.18550000 #  si         c2        si         c2   
13        0.00000000      0.00000000      0.00000000      0.00000000      0.00000000     -0.14230000    112.03550000    112.09770000 #  hpan       c3        si          h   
14        0.00000000      0.00000000      0.33820000      0.00000000      0.00000000      0.42720000    112.03550000    113.18550000 #  hpan       c3        si         c2   

AngleAngle Coeffs  # class2

1        -1.31990000     -1.31990000      0.11840000    112.67000000    110.77000000    110.77000000 #  c2         c2        c2       hpan     nb!=3   
2         0.27380000     -0.48250000      0.27380000    110.77000000    110.77000000    107.66000000 #  c2         c2       hpan      hpan     nb!=3   
3         0.00000000      0.00000000      0.00000000    110.77000000    112.03550000    112.67000000 #  c2         c2       hpan       si      nb!=3   
4         3.38270000      3.38270000      2.79630000    113.18550000    112.09770000    112.09770000 #  c2         si        c2        h       nb!=3   
5         3.38270000      3.38270000      2.79630000    113.18550000    112.09770000    112.09770000 #  c2         si        c3        h       nb!=3   
6         4.45590000      4.68090000      4.45590000    112.09770000    112.09770000    108.60510000 #  c2         si        h         h       nb!=3   
7         4.45590000      4.68090000      4.45590000    112.09770000    112.09770000    108.60510000 #  c3         si        h         h       nb!=3   
8         0.00000000      0.00000000      2.20500000    107.66000000    112.03550000    112.03550000 #  hpan       c2       hpan       si      nb!=3   
9         0.00000000      0.00000000      0.00000000    112.03550000    112.30000000    112.03550000 #  hpan       c2        si        si      nb!=3   
10       -0.31570000     -0.31570000     -0.31570000    107.66000000    107.66000000    107.66000000 #  hpan       c3       hpan      hpan     nb!=3   
11        0.00000000      0.00000000      2.20500000    107.66000000    112.03550000    112.03550000 #  hpan       c3       hpan       si      nb!=3   

Atoms # full

 1  2  1   -0.135000   -9.979570270     0.343318919    -0.863124324      0    0    0 #  c2/C
 2  2  1   -0.376000   -6.925970270     0.665318919    -0.863124324      0    0    0 #  c2/C
 3  2  5    0.522000   -5.285370270    -0.252781081    -0.863124324      0    0    0 #  si/Si
 4  2  2   -0.294000   -3.872270270     0.987218919    -0.863124324      0    0    0 #  c3/C
 5  2  5    0.522000   -8.338970270    -0.574781081    -0.863124324      0    0    0 #  si/Si
 6  2  4    0.053000   -6.993270270     1.303618919    -1.772324324      0    0    0 #  hpan/H
 7  2  4    0.053000   -6.993370270     1.304218919     0.045675676      0    0    0 #  hpan/H
 8  2  3   -0.126000   -5.195270270    -1.106781081     0.353275676      0    0    0 #  h/H
 9  2  3   -0.126000   -5.195270270    -1.107581081    -2.078924324      0    0    0 #  h/H
10  2  4    0.053000   -2.901070270     0.443718919    -0.863124324      0    0    0 #  hpan/H
11  2  4    0.053000   -3.939670270     1.625618919    -1.772324324      0    0    0 #  hpan/H
12  2  4    0.053000   -3.939670270     1.626218919     0.045675676      0    0    0 #  hpan/H
13  2  3   -0.126000   -8.248970270    -1.428781081     0.353275676      0    0    0 #  h/H
14  2  3   -0.126000   -8.248870270    -1.429581081    -2.078924324      0    0    0 #  h/H
15  1  1   -0.106000    0.949529730     0.293818919    -0.863124324      0    0    0 #  c2/C
16  1  1   -0.241000    2.268429730    -0.467681081    -0.863124324      0    0    0 #  c2/C
17  1  5    0.522000    3.254929730    -0.014081081     0.671575676      0    0    0 #  si/Si
18  1  1   -0.376000    4.883129730    -0.954081081     0.671575676      0    0    0 #  c2/C
19  1  5    0.522000    5.869629730    -0.500581081     2.206375676      0    0    0 #  si/Si
20  1  1   -0.376000    7.497729730    -1.440581081     2.206375676      0    0    0 #  c2/C
21  1  5    0.135000    8.484229730    -0.986981081     3.741075676      0    0    0 #  si/Si
22  1  1   -0.241000    1.227029730     1.791318919    -0.863124324      0    0    0 #  c2/C
23  1  5    0.135000   -0.401070270     2.731318919    -0.863124324      0    0    0 #  si/Si
24  1  4    0.053000    0.366529730     0.025118919    -1.772324324      0    0    0 #  hpan/H
25  1  4    0.053000    0.366029730     0.024818919     0.045675676      0    0    0 #  hpan/H
26  1  4    0.053000    2.064529730    -1.561881081    -0.862424324      0    0    0 #  hpan/H
27  1  4    0.053000    2.851929730    -0.198681081    -1.771924324      0    0    0 #  hpan/H
28  1  3   -0.126000    3.527829730     1.449718919     0.670775676      0    0    0 #  h/H
29  1  3   -0.126000    2.474329730    -0.373981081     1.887475676      0    0    0 #  h/H
30  1  4    0.053000    4.679129730    -2.048281081     0.672275676      0    0    0 #  hpan/H
31  1  4    0.053000    5.466629730    -0.685181081    -0.237224324      0    0    0 #  hpan/H
32  1  3   -0.126000    6.142429730     0.963218919     2.205475676      0    0    0 #  h/H
33  1  3   -0.126000    5.089029730    -0.860381081     3.422175676      0    0    0 #  h/H
34  1  4    0.053000    7.293829730    -2.534681081     2.207075676      0    0    0 #  hpan/H
35  1  4    0.053000    8.081229730    -1.171581081     1.297575676      0    0    0 #  hpan/H
36  1  4    0.053000    1.810029730     2.060018919     0.046175676      0    0    0 #  hpan/H
37  1  4    0.053000    1.810529730     2.060318919    -1.771924324      0    0    0 #  hpan/H

Bonds

  1   3     1     5  
  2   3     2     3  
  3   3     2     5  
  4   2     2     6  
  5   2     2     7  
  6   5     4     3  
  7   6     8     3  
  8   6     9     3  
  9   4     4    10  
 10   4     4    11  
 11   4     4    12  
 12   6    13     5  
 13   6    14     5  
 14   1    15    16  
 15   1    15    22  
 16   2    15    24  
 17   2    15    25  
 18   3    16    17  
 19   2    16    26  
 20   2    16    27  
 21   3    18    17  
 22   6    28    17  
 23   6    29    17  
 24   3    18    19  
 25   2    18    30  
 26   2    18    31  
 27   3    20    19  
 28   6    32    19  
 29   6    33    19  
 30   3    20    21  
 31   2    20    34  
 32   2    20    35  
 33   3    22    23  
 34   2    22    36  
 35   2    22    37  

Angles

  1   4     1     5     2  
  2   6     1     5    13  
  3   6     1     5    14  
  4   5     2     3     4  
  5   6     2     3     8  
  6   6     2     3     9  
  7   6     2     5    13  
  8   6     2     5    14  
  9   13    3     2     5  
 10   10    6     2     3  
 11   10    7     2     3  
 12   12   10     4     3  
 13   12   11     4     3  
 14   12   12     4     3  
 15   7     4     3     8  
 16   7     4     3     9  
 17   10    6     2     5  
 18   10    7     2     5  
 19   9     6     2     7  
 20   8     8     3     9  
 21   11   10     4    11  
 22   11   10     4    12  
 23   11   11     4    12  
 24   8    13     5    14  
 25   3    15    16    17  
 26   2    15    16    26  
 27   2    15    16    27  
 28   3    15    22    23  
 29   2    15    22    36  
 30   2    15    22    37  
 31   1    16    15    22  
 32   2    16    15    24  
 33   2    16    15    25  
 34   4    16    17    18  
 35   6    16    17    28  
 36   6    16    17    29  
 37   10   26    16    17  
 38   10   27    16    17  
 39   13   17    18    19  
 40   10   30    18    17  
 41   10   31    18    17  
 42   6    18    17    28  
 43   6    18    17    29  
 44   4    18    19    20  
 45   6    18    19    32  
 46   6    18    19    33  
 47   10   30    18    19  
 48   10   31    18    19  
 49   13   19    20    21  
 50   10   34    20    19  
 51   10   35    20    19  
 52   6    20    19    32  
 53   6    20    19    33  
 54   10   34    20    21  
 55   10   35    20    21  
 56   2    22    15    24  
 57   2    22    15    25  
 58   10   36    22    23  
 59   10   37    22    23  
 60   9    24    15    25  
 61   9    26    16    27  
 62   8    28    17    29  
 63   9    30    18    31  
 64   8    32    19    33  
 65   9    34    20    35  
 66   9    36    22    37  

Dihedrals

  1   12    3     2     5     1  
  2   8     6     2     5     1  
  3   8     7     2     5     1  
  4   14   10     4     3     2  
  5   14   11     4     3     2  
  6   14   12     4     3     2  
  7   11    3     2     5    13  
  8   11    3     2     5    14  
  9   10    5     2     3     4  
 10   9     6     2     3     4  
 11   9     7     2     3     4  
 12   11    5     2     3     8  
 13   11    5     2     3     9  
 14   7     6     2     3     8  
 15   7     6     2     3     9  
 16   7     6     2     5    13  
 17   7     6     2     5    14  
 18   7     7     2     3     8  
 19   7     7     2     3     9  
 20   7     7     2     5    13  
 21   7     7     2     5    14  
 22   13   10     4     3     8  
 23   13   11     4     3     8  
 24   13   12     4     3     8  
 25   13   10     4     3     9  
 26   13   11     4     3     9  
 27   13   12     4     3     9  
 28   5    15    16    17    18  
 29   6    15    16    17    28  
 30   6    15    16    17    29  
 31   3    16    15    22    23  
 32   2    16    15    22    36  
 33   2    16    15    22    37  
 34   12   19    18    17    16  
 35   8    30    18    17    16  
 36   8    31    18    17    16  
 37   3    22    15    16    17  
 38   4    24    15    16    17  
 39   4    25    15    16    17  
 40   12   17    18    19    20  
 41   11   17    18    19    32  
 42   11   17    18    19    33  
 43   8    26    16    17    18  
 44   8    27    16    17    18  
 45   12   21    20    19    18  
 46   8    34    20    19    18  
 47   8    35    20    19    18  
 48   11   19    18    17    28  
 49   11   19    18    17    29  
 50   8    30    18    19    20  
 51   8    31    18    19    20  
 52   11   21    20    19    32  
 53   11   21    20    19    33  
 54   2    22    15    16    26  
 55   2    22    15    16    27  
 56   4    24    15    22    23  
 57   4    25    15    22    23  
 58   1    24    15    16    26  
 59   1    24    15    16    27  
 60   1    24    15    22    36  
 61   1    24    15    22    37  
 62   1    25    15    16    26  
 63   1    25    15    16    27  
 64   1    25    15    22    36  
 65   1    25    15    22    37  
 66   7    26    16    17    28  
 67   7    26    16    17    29  
 68   7    27    16    17    28  
 69   7    27    16    17    29  
 70   7    30    18    17    28  
 71   7    31    18    17    28  
 72   7    30    18    17    29  
 73   7    31    18    17    29  
 74   7    30    18    19    32  
 75   7    30    18    19    33  
 76   7    31    18    19    32  
 77   7    31    18    19    33  
 78   7    34    20    19    32  
 79   7    35    20    19    32  
 80   7    34    20    19    33  
 81   7    35    20    19    33  

Impropers

  1   4     1     5     2    13  
  2   4     1     5     2    14  
  3   6     1     5    13    14  
  4   5     2     3     4     8  
  5   5     2     3     4     9  
  6   6     2     3     8     9  
  7   6     2     5    13    14  
  8   9     6     2     3     5  
  9   9     7     2     3     5  
 10   8     6     2     7     3  
 11   11   10     4    11     3  
 12   11   10     4    12     3  
 13   11   11     4    12     3  
 14   7     4     3     8     9  
 15   8     6     2     7     5  
 16   10   10     4    11    12  
 17   3    15    16    26    17  
 18   3    15    16    27    17  
 19   2    15    16    26    27  
 20   3    15    22    36    23  
 21   3    15    22    37    23  
 22   2    15    22    36    37  
 23   1    16    15    22    24  
 24   1    16    15    22    25  
 25   2    16    15    24    25  
 26   4    16    17    18    28  
 27   4    16    17    18    29  
 28   6    16    17    28    29  
 29   8    26    16    27    17  
 30   9    30    18    17    19  
 31   9    31    18    17    19  
 32   8    30    18    31    17  
 33   6    18    17    28    29  
 34   4    18    19    20    32  
 35   4    18    19    20    33  
 36   6    18    19    32    33  
 37   8    30    18    31    19  
 38   9    34    20    19    21  
 39   9    35    20    19    21  
 40   8    34    20    35    19  
 41   6    20    19    32    33  
 42   8    34    20    35    21  
 43   2    22    15    24    25  
 44   8    36    22    37    23  
