HEADER,  pre5.mol  read w/ mol2lmp > atom_typing v1.0 / 16 Jan 2023 w/PCFF-IFF atom-types > all2lmp: v1.4 / 9 Jan 2023  Class: 2

46 atoms
44 bonds
84 angles
108 dihedrals
56 impropers

4 atom types
3 bond types
6 angle types
4 dihedral types
4 improper types

-13.679078261 13.782521739 xlo xhi
-1.828710870 1.949889130 ylo yhi
-1.465791304 1.466408696 zlo zhi

Masses # class2

1   12.01115000  #  c2   
2    1.00797000  #  h    
3    1.00797000  #  hpan 
4   28.08600000  #  si   

Pair Coeffs  # lj/class2/coul/long

1         0.05400000      4.01000000 #  c2   
2         0.02000000      2.99500000 #  h    
3         0.02000000      2.30000000 #  hpan 
4         0.19000000      4.45000000 #  si   

Bond Coeffs  # class2

1         1.10100000    345.00000000   -691.89000000    844.60000000 #  c2        hpan   
2         1.89950000    189.65360000   -279.42100000    307.51350000 #  c2          si   
3         1.47830000    202.77980000   -305.36030000    280.26850000 #  h           si   

Angle Coeffs  # class2

1       113.18550000     36.20690000    -20.39390000     20.01720000 #  c2         si         c2   
2       112.09770000     36.48320000    -12.80940000      0.00000000 #  c2         si          h   
3       108.60510000     32.54150000     -8.31640000      0.00000000 #  h          si          h   
4       107.66000000     39.64100000    -12.92100000     -2.43180000 #  hpan       c2       hpan   
5       112.03550000     28.77210000    -13.95230000      0.00000000 #  hpan       c2         si   
6       112.30000000     34.60000000      0.00000000      0.00000000 #  si         c2         si   

Dihedral Coeffs  # class2

1         0.00000000      0.00000000      0.00000000      0.00000000     -0.06570000      0.00000000 #  hpan       c2        si          h   
2         0.00000000      0.00000000      0.00000000      0.00000000     -0.06570000      0.00000000 #  hpan       c2        si         c2   
3         0.00000000      0.00000000      0.00000000      0.00000000      0.11110000      0.00000000 #  si         c2        si          h   
4         0.00000000      0.00000000      0.00000000      0.00000000      0.11110000      0.00000000 #  si         c2        si         c2   

Improper Coeffs  # class2

1         0.00000000      0.00000000 #  c2         si        c2        h       nb!=3   
2         0.00000000      0.00000000 #  c2         si        h         h       nb!=3   
3         0.00000000      0.00000000 #  hpan       c2       hpan       si      nb!=3   
4         0.00000000      0.00000000 #  hpan       c2        si        si      nb!=3   

BondBond Coeffs  # class2

1         3.74190000      1.89950000      1.89950000 #  c2         si         c2   
2         3.92640000      1.89950000      1.47830000 #  c2         si          h   
3         4.64080000      1.47830000      1.47830000 #  h          si          h   
4         5.33160000      1.10100000      1.10100000 #  hpan       c2       hpan   
5         1.65610000      1.10100000      1.89950000 #  hpan       c2         si   
6         0.00000000      1.89950000      1.89950000 #  si         c2         si   

BondAngle Coeffs  # class2

1        18.58050000     18.58050000      1.89950000      1.89950000 #  c2         si         c2   
2        13.39610000      7.41040000      1.89950000      1.47830000 #  c2         si          h   
3         9.34670000      9.34670000      1.47830000      1.47830000 #  h          si          h   
4        18.10300000     18.10300000      1.10100000      1.10100000 #  hpan       c2       hpan   
5        16.69080000     18.27640000      1.10100000      1.89950000 #  hpan       c2         si   
6         0.00000000      0.00000000      1.89950000      1.89950000 #  si         c2         si   

AngleAngleTorsion Coeffs  # class2

1       -12.93410000    112.03550000    112.09770000 #  hpan       c2        si          h   
2       -17.58020000    112.03550000    113.18550000 #  hpan       c2        si         c2   
3         0.00000000    112.30000000    112.09770000 #  si         c2        si          h   
4         0.00000000    112.30000000    113.18550000 #  si         c2        si         c2   

EndBondTorsion Coeffs  # class2

1         0.00000000      0.00000000      0.00000000      0.00000000      0.00000000      0.00000000      1.10100000      1.47830000 #  hpan       c2        si          h   
2         0.00000000      0.00000000      0.00000000      0.00000000      0.00000000      0.00000000      1.10100000      1.89950000 #  hpan       c2        si         c2   
3         0.00000000      0.00000000      0.00000000      0.00000000      0.00000000      0.00000000      1.89950000      1.47830000 #  si         c2        si          h   
4         0.00000000      0.00000000      0.00000000      0.00000000      0.00000000      0.00000000      1.89950000      1.89950000 #  si         c2        si         c2   

MiddleBondTorsion Coeffs  # class2

1         0.00000000      0.00000000     -0.59060000      1.89950000 #  hpan       c2        si          h   
2         0.00000000      0.00000000      0.00000000      1.89950000 #  hpan       c2        si         c2   
3         0.00000000      0.00000000      0.00000000      1.89950000 #  si         c2        si          h   
4         0.00000000      0.00000000      0.00000000      1.89950000 #  si         c2        si         c2   

BondBond13 Coeffs  # class2

1         0.00000000      1.10100000      1.47830000 #  hpan       c2        si          h   
2         0.00000000      1.10100000      1.89950000 #  hpan       c2        si         c2   
3         0.00000000      1.89950000      1.47830000 #  si         c2        si          h   
4         0.00000000      1.89950000      1.89950000 #  si         c2        si         c2   

AngleTorsion Coeffs  # class2

1         0.00000000      0.00000000      0.00000000      0.00000000      0.00000000     -0.14230000    112.03550000    112.09770000 #  hpan       c2        si          h   
2         0.00000000      0.00000000      0.33820000      0.00000000      0.00000000      0.42720000    112.03550000    113.18550000 #  hpan       c2        si         c2   
3         0.00000000      0.00000000      0.00000000      0.00000000      0.00000000      0.00000000    112.30000000    112.09770000 #  si         c2        si          h   
4         0.00000000      0.00000000      0.00000000      0.00000000      0.00000000      0.00000000    112.30000000    113.18550000 #  si         c2        si         c2   

AngleAngle Coeffs  # class2

1         3.38270000      3.38270000      2.79630000    113.18550000    112.09770000    112.09770000 #  c2         si        c2        h       nb!=3   
2         4.45590000      4.68090000      4.45590000    112.09770000    112.09770000    108.60510000 #  c2         si        h         h       nb!=3   
3         0.00000000      0.00000000      2.20500000    107.66000000    112.03550000    112.03550000 #  hpan       c2       hpan       si      nb!=3   
4         0.00000000      0.00000000      0.00000000    112.03550000    112.30000000    112.03550000 #  hpan       c2        si        si      nb!=3   

Atoms # full

 1  1  1   -0.376000   -8.941778261    -0.377010870     0.000008696      0    0    0 #  c2/C
 2  1  4    0.522000   -7.313678261     0.562989130     0.000008696      0    0    0 #  si/Si
 3  1  1   -0.376000   -5.884078261    -0.657910870     0.000008696      0    0    0 #  c2/C
 4  1  4    0.522000   -4.255978261     0.282089130     0.000008696      0    0    0 #  si/Si
 5  1  1   -0.376000   -2.826378261    -0.938910870     0.000008696      0    0    0 #  c2/C
 6  1  4    0.135000   -1.198278261     0.001089130     0.000008696      0    0    0 #  si/Si
 7  1  4    0.522000   -10.371378261    0.843889130     0.000008696      0    0    0 #  si/Si
 8  1  1   -0.376000   -11.999478261   -0.096110870     0.000008696      0    0    0 #  c2/C
 9  1  4    0.135000   -13.429078261    1.124789130     0.000008696      0    0    0 #  si/Si
10  1  3    0.053000   -9.000478261    -1.016210870    -0.909291304      0    0    0 #  hpan/H
11  1  3    0.053000   -9.000578261    -1.016910870     0.908808696      0    0    0 #  hpan/H
12  1  2   -0.126000   -7.235078261     1.418089130     1.216408696      0    0    0 #  h/H
13  1  2   -0.126000   -7.235078261     1.418989130    -1.215791304      0    0    0 #  h/H
14  1  3    0.053000   -5.942778261    -1.297110870    -0.909291304      0    0    0 #  hpan/H
15  1  3    0.053000   -5.942878261    -1.297810870     0.908808696      0    0    0 #  hpan/H
16  1  2   -0.126000   -4.177378261     1.137189130     1.216408696      0    0    0 #  h/H
17  1  2   -0.126000   -4.177378261     1.137989130    -1.215791304      0    0    0 #  h/H
18  1  3    0.053000   -2.885078261    -1.578110870    -0.909291304      0    0    0 #  hpan/H
19  1  3    0.053000   -2.885178261    -1.578710870     0.908808696      0    0    0 #  hpan/H
20  1  2   -0.126000   -10.292778261    1.699089130     1.216408696      0    0    0 #  h/H
21  1  2   -0.126000   -10.292678261    1.699889130    -1.215791304      0    0    0 #  h/H
22  1  3    0.053000   -12.058178261   -0.735310870    -0.909291304      0    0    0 #  hpan/H
23  1  3    0.053000   -12.058278261   -0.735910870     0.908808696      0    0    0 #  hpan/H
24  2  1   -0.376000    5.789021739    -0.377010870     0.000008696      0    0    0 #  c2/C
25  2  4    0.522000    7.417121739     0.562989130     0.000008696      0    0    0 #  si/Si
26  2  1   -0.376000    8.846721739    -0.657910870     0.000008696      0    0    0 #  c2/C
27  2  4    0.522000   10.474821739     0.282089130     0.000008696      0    0    0 #  si/Si
28  2  1   -0.376000   11.904421739    -0.938910870     0.000008696      0    0    0 #  c2/C
29  2  4    0.135000   13.532521739     0.001089130     0.000008696      0    0    0 #  si/Si
30  2  4    0.522000    4.359421739     0.843889130     0.000008696      0    0    0 #  si/Si
31  2  1   -0.376000    2.731321739    -0.096110870     0.000008696      0    0    0 #  c2/C
32  2  4    0.135000    1.301721739     1.124789130     0.000008696      0    0    0 #  si/Si
33  2  3    0.053000    5.730221739    -1.016210870    -0.909291304      0    0    0 #  hpan/H
34  2  3    0.053000    5.730221739    -1.016910870     0.908808696      0    0    0 #  hpan/H
35  2  2   -0.126000    7.495621739     1.418089130     1.216408696      0    0    0 #  h/H
36  2  2   -0.126000    7.495721739     1.418989130    -1.215791304      0    0    0 #  h/H
37  2  3    0.053000    8.787921739    -1.297110870    -0.909291304      0    0    0 #  hpan/H
38  2  3    0.053000    8.787921739    -1.297810870     0.908808696      0    0    0 #  hpan/H
39  2  2   -0.126000   10.553321739     1.137189130     1.216408696      0    0    0 #  h/H
40  2  2   -0.126000   10.553421739     1.137989130    -1.215791304      0    0    0 #  h/H
41  2  3    0.053000   11.845621739    -1.578110870    -0.909291304      0    0    0 #  hpan/H
42  2  3    0.053000   11.845621739    -1.578710870     0.908808696      0    0    0 #  hpan/H
43  2  2   -0.126000    4.438021739     1.698989130     1.216408696      0    0    0 #  h/H
44  2  2   -0.126000    4.438021739     1.699889130    -1.215791304      0    0    0 #  h/H
45  2  3    0.053000    2.672621739    -0.735310870    -0.909291304      0    0    0 #  hpan/H
46  2  3    0.053000    2.672521739    -0.735910870     0.908808696      0    0    0 #  hpan/H

Bonds

  1   2     1     2  
  2   2     1     7  
  3   1     1    10  
  4   1     1    11  
  5   2     3     2  
  6   3    12     2  
  7   3    13     2  
  8   2     3     4  
  9   1     3    14  
 10   1     3    15  
 11   2     5     4  
 12   3    16     4  
 13   3    17     4  
 14   2     5     6  
 15   1     5    18  
 16   1     5    19  
 17   2     8     7  
 18   3    20     7  
 19   3    21     7  
 20   2     8     9  
 21   1     8    22  
 22   1     8    23  
 23   2    24    25  
 24   2    24    30  
 25   1    24    33  
 26   1    24    34  
 27   2    26    25  
 28   3    35    25  
 29   3    36    25  
 30   2    26    27  
 31   1    26    37  
 32   1    26    38  
 33   2    28    27  
 34   3    39    27  
 35   3    40    27  
 36   2    28    29  
 37   1    28    41  
 38   1    28    42  
 39   2    31    30  
 40   3    43    30  
 41   3    44    30  
 42   2    31    32  
 43   1    31    45  
 44   1    31    46  

Angles

  1   1     1     2     3  
  2   2     1     2    12  
  3   2     1     2    13  
  4   1     1     7     8  
  5   2     1     7    20  
  6   2     1     7    21  
  7   6     2     1     7  
  8   5    10     1     2  
  9   5    11     1     2  
 10   6     2     3     4  
 11   5    14     3     2  
 12   5    15     3     2  
 13   2     3     2    12  
 14   2     3     2    13  
 15   1     3     4     5  
 16   2     3     4    16  
 17   2     3     4    17  
 18   5    14     3     4  
 19   5    15     3     4  
 20   6     4     5     6  
 21   5    18     5     4  
 22   5    19     5     4  
 23   2     5     4    16  
 24   2     5     4    17  
 25   5    18     5     6  
 26   5    19     5     6  
 27   5    10     1     7  
 28   5    11     1     7  
 29   6     7     8     9  
 30   5    22     8     7  
 31   5    23     8     7  
 32   2     8     7    20  
 33   2     8     7    21  
 34   5    22     8     9  
 35   5    23     8     9  
 36   4    10     1    11  
 37   3    12     2    13  
 38   4    14     3    15  
 39   3    16     4    17  
 40   4    18     5    19  
 41   3    20     7    21  
 42   4    22     8    23  
 43   1    24    25    26  
 44   2    24    25    35  
 45   2    24    25    36  
 46   1    24    30    31  
 47   2    24    30    43  
 48   2    24    30    44  
 49   6    25    24    30  
 50   5    33    24    25  
 51   5    34    24    25  
 52   6    25    26    27  
 53   5    37    26    25  
 54   5    38    26    25  
 55   2    26    25    35  
 56   2    26    25    36  
 57   1    26    27    28  
 58   2    26    27    39  
 59   2    26    27    40  
 60   5    37    26    27  
 61   5    38    26    27  
 62   6    27    28    29  
 63   5    41    28    27  
 64   5    42    28    27  
 65   2    28    27    39  
 66   2    28    27    40  
 67   5    41    28    29  
 68   5    42    28    29  
 69   5    33    24    30  
 70   5    34    24    30  
 71   6    30    31    32  
 72   5    45    31    30  
 73   5    46    31    30  
 74   2    31    30    43  
 75   2    31    30    44  
 76   5    45    31    32  
 77   5    46    31    32  
 78   4    33    24    34  
 79   3    35    25    36  
 80   4    37    26    38  
 81   3    39    27    40  
 82   4    41    28    42  
 83   3    43    30    44  
 84   4    45    31    46  

Dihedrals

  1   4     4     3     2     1  
  2   2    14     3     2     1  
  3   2    15     3     2     1  
  4   4     9     8     7     1  
  5   2    22     8     7     1  
  6   2    23     8     7     1  
  7   4     2     1     7     8  
  8   3     2     1     7    20  
  9   3     2     1     7    21  
 10   4     2     3     4     5  
 11   3     2     3     4    16  
 12   3     2     3     4    17  
 13   4     7     1     2     3  
 14   2    10     1     2     3  
 15   2    11     1     2     3  
 16   4     6     5     4     3  
 17   2    18     5     4     3  
 18   2    19     5     4     3  
 19   3     4     3     2    12  
 20   3     4     3     2    13  
 21   2    14     3     4     5  
 22   2    15     3     4     5  
 23   3     6     5     4    16  
 24   3     6     5     4    17  
 25   3     7     1     2    12  
 26   3     7     1     2    13  
 27   2    10     1     7     8  
 28   2    11     1     7     8  
 29   3     9     8     7    20  
 30   3     9     8     7    21  
 31   1    10     1     2    12  
 32   1    10     1     2    13  
 33   1    10     1     7    20  
 34   1    10     1     7    21  
 35   1    11     1     2    12  
 36   1    11     1     2    13  
 37   1    11     1     7    20  
 38   1    11     1     7    21  
 39   1    14     3     2    12  
 40   1    15     3     2    12  
 41   1    14     3     2    13  
 42   1    15     3     2    13  
 43   1    14     3     4    16  
 44   1    14     3     4    17  
 45   1    15     3     4    16  
 46   1    15     3     4    17  
 47   1    18     5     4    16  
 48   1    19     5     4    16  
 49   1    18     5     4    17  
 50   1    19     5     4    17  
 51   1    22     8     7    20  
 52   1    23     8     7    20  
 53   1    22     8     7    21  
 54   1    23     8     7    21  
 55   4    27    26    25    24  
 56   2    37    26    25    24  
 57   2    38    26    25    24  
 58   4    32    31    30    24  
 59   2    45    31    30    24  
 60   2    46    31    30    24  
 61   4    25    24    30    31  
 62   3    25    24    30    43  
 63   3    25    24    30    44  
 64   4    25    26    27    28  
 65   3    25    26    27    39  
 66   3    25    26    27    40  
 67   4    30    24    25    26  
 68   2    33    24    25    26  
 69   2    34    24    25    26  
 70   4    29    28    27    26  
 71   2    41    28    27    26  
 72   2    42    28    27    26  
 73   3    27    26    25    35  
 74   3    27    26    25    36  
 75   2    37    26    27    28  
 76   2    38    26    27    28  
 77   3    29    28    27    39  
 78   3    29    28    27    40  
 79   3    30    24    25    35  
 80   3    30    24    25    36  
 81   2    33    24    30    31  
 82   2    34    24    30    31  
 83   3    32    31    30    43  
 84   3    32    31    30    44  
 85   1    33    24    25    35  
 86   1    33    24    25    36  
 87   1    33    24    30    43  
 88   1    33    24    30    44  
 89   1    34    24    25    35  
 90   1    34    24    25    36  
 91   1    34    24    30    43  
 92   1    34    24    30    44  
 93   1    37    26    25    35  
 94   1    38    26    25    35  
 95   1    37    26    25    36  
 96   1    38    26    25    36  
 97   1    37    26    27    39  
 98   1    37    26    27    40  
 99   1    38    26    27    39  
 100  1    38    26    27    40  
 101  1    41    28    27    39  
 102  1    42    28    27    39  
 103  1    41    28    27    40  
 104  1    42    28    27    40  
 105  1    45    31    30    43  
 106  1    46    31    30    43  
 107  1    45    31    30    44  
 108  1    46    31    30    44  

Impropers

  1   1     1     2     3    12  
  2   1     1     2     3    13  
  3   2     1     2    12    13  
  4   1     1     7     8    20  
  5   1     1     7     8    21  
  6   2     1     7    20    21  
  7   4    10     1     2     7  
  8   4    11     1     2     7  
  9   3    10     1    11     2  
 10   4    14     3     2     4  
 11   4    15     3     2     4  
 12   3    14     3    15     2  
 13   2     3     2    12    13  
 14   1     3     4     5    16  
 15   1     3     4     5    17  
 16   2     3     4    16    17  
 17   3    14     3    15     4  
 18   4    18     5     4     6  
 19   4    19     5     4     6  
 20   3    18     5    19     4  
 21   2     5     4    16    17  
 22   3    18     5    19     6  
 23   3    10     1    11     7  
 24   4    22     8     7     9  
 25   4    23     8     7     9  
 26   3    22     8    23     7  
 27   2     8     7    20    21  
 28   3    22     8    23     9  
 29   1    24    25    26    35  
 30   1    24    25    26    36  
 31   2    24    25    35    36  
 32   1    24    30    31    43  
 33   1    24    30    31    44  
 34   2    24    30    43    44  
 35   4    33    24    25    30  
 36   4    34    24    25    30  
 37   3    33    24    34    25  
 38   4    37    26    25    27  
 39   4    38    26    25    27  
 40   3    37    26    38    25  
 41   2    26    25    35    36  
 42   1    26    27    28    39  
 43   1    26    27    28    40  
 44   2    26    27    39    40  
 45   3    37    26    38    27  
 46   4    41    28    27    29  
 47   4    42    28    27    29  
 48   3    41    28    42    27  
 49   2    28    27    39    40  
 50   3    41    28    42    29  
 51   3    33    24    34    30  
 52   4    45    31    30    32  
 53   4    46    31    30    32  
 54   3    45    31    46    30  
 55   2    31    30    43    44  
 56   3    45    31    46    32  
