HEADER,  smp_v2.mol  read w/ mol2lmp > atom_typing v1.0 / 16 Jan 2023 w/PCFF-IFF atom-types > all2lmp: v1.4 / 9 Jan 2023  Class: 2

69 atoms
68 bonds
132 angles
190 dihedrals
86 impropers

7 atom types
9 bond types
17 angle types
16 dihedral types
12 improper types

-11.278317391 10.760082609 xlo xhi
-11.571800000 11.628000000 ylo yhi
-9.206252174 8.765747826 zlo zhi

Masses # class2

1   12.01115000  #  c2   
2   12.01115000  #  c3   
3   12.01115000  #  c=   
4   12.01115000  #  c=1  
5    1.00797000  #  h    
6    1.00797000  #  hpan 
7   28.08600000  #  si   

Pair Coeffs  # lj/class2/coul/long

1         0.05400000      4.01000000 #  c2   
2         0.05400000      3.90000000 #  c3   
3         0.06400000      3.90000000 #  c=   
4         0.06400000      4.01000000 #  c=1  
5         0.02000000      2.99500000 #  h    
6         0.02000000      2.30000000 #  hpan 
7         0.19000000      4.45000000 #  si   

Bond Coeffs  # class2

1         1.50600000    312.35170000   -582.18610000    339.89710000 #  c2         c=1   
2         1.10100000    345.00000000   -691.89000000    844.60000000 #  c2        hpan   
3         1.89950000    189.65360000   -279.42100000    307.51350000 #  c2          si   
4         1.10100000    345.00000000   -691.89000000    844.60000000 #  c3        hpan   
5         1.89950000    189.65360000   -279.42100000    307.51350000 #  c3          si   
6         1.34000000    543.99000000  -1238.20250000   1644.02820000 #  c=         c=1   
7         1.08830000    365.76790000   -725.54040000    781.66210000 #  c=        hpan   
8         1.08830000    365.76790000   -725.54040000    781.66210000 #  c=1       hpan   
9         1.47830000    202.77980000   -305.36030000    280.26850000 #  h           si   

Angle Coeffs  # class2

1       126.26000000     43.82500000    -27.72660000      1.00560000 #  c2        c=1         c=   
2       117.27000000     30.09440000     -8.08260000     -8.67810000 #  c2        c=1       hpan   
3       113.18550000     36.20690000    -20.39390000     20.01720000 #  c2         si         c2   
4       113.18550000     36.20690000    -20.39390000     20.01720000 #  c2         si         c3   
5       112.09770000     36.48320000    -12.80940000      0.00000000 #  c2         si          h   
6       112.09770000     36.48320000    -12.80940000      0.00000000 #  c3         si          h   
7       124.88000000     35.27660000    -17.77400000     -1.62150000 #  c=        c=1       hpan   
8       110.06000000     41.27840000    -14.29630000      5.22290000 #  c=1        c2       hpan   
9       112.30000000     34.60000000      0.00000000      0.00000000 #  c=1        c2         si   
10      124.88000000     35.27660000    -17.77400000     -1.62150000 #  c=1        c=       hpan   
11      108.60510000     32.54150000     -8.31640000      0.00000000 #  h          si          h   
12      107.66000000     39.64100000    -12.92100000     -2.43180000 #  hpan       c2       hpan   
13      112.03550000     28.77210000    -13.95230000      0.00000000 #  hpan       c2         si   
14      107.66000000     39.64100000    -12.92100000     -2.43180000 #  hpan       c3       hpan   
15      112.03550000     28.77210000    -13.95230000      0.00000000 #  hpan       c3         si   
16      115.49000000     29.63630000    -12.48530000     -6.22180000 #  hpan       c=       hpan   
17      112.30000000     34.60000000      0.00000000      0.00000000 #  si         c2         si   

Dihedral Coeffs  # class2

1        -0.11430000      0.00000000      0.00000000      0.00000000     -0.13490000      0.00000000 #  hpan       c2       c=1       hpan   
2         0.00000000      0.00000000      0.00000000      0.00000000      0.11110000      0.00000000 #  c=1        c2        si          h   
3         0.00000000      0.00000000      4.89740000      0.00000000      0.00000000      0.00000000 #  hpan       c=       c=1       hpan   
4         0.11430000      0.00000000      0.00000000      0.00000000      0.18540000      0.00000000 #  hpan       c2       c=1         c=   
5         0.00000000      0.00000000      0.00000000      0.00000000      0.21100000      0.00000000 #  c=        c=1        c2         si   
6         0.00000000      0.00000000      0.00000000      0.00000000      0.21100000      0.00000000 #  hpan      c=1        c2         si   
7         0.00000000      0.00000000      5.20970000      0.00000000      0.00000000      0.00000000 #  hpan       c=       c=1         c2   
8         0.00000000      0.00000000      0.00000000      0.00000000      0.11110000      0.00000000 #  c=1        c2        si         c2   
9         0.00000000      0.00000000      0.00000000      0.00000000     -0.06570000      0.00000000 #  hpan       c2        si         c2   
10        0.00000000      0.00000000      0.00000000      0.00000000     -0.06570000      0.00000000 #  hpan       c2        si          h   
11        0.00000000      0.00000000      0.00000000      0.00000000     -0.06570000      0.00000000 #  hpan       c2        si         c3   
12        0.00000000      0.00000000      0.00000000      0.00000000      0.11110000      0.00000000 #  si         c2        si          h   
13        0.00000000      0.00000000      0.00000000      0.00000000      0.11110000      0.00000000 #  si         c2        si         c3   
14        0.00000000      0.00000000      0.00000000      0.00000000      0.11110000      0.00000000 #  si         c2        si         c2   
15        0.00000000      0.00000000      0.00000000      0.00000000     -0.06570000      0.00000000 #  hpan       c3        si         c2   
16        0.00000000      0.00000000      0.00000000      0.00000000     -0.06570000      0.00000000 #  hpan       c3        si          h   

Improper Coeffs  # class2

1         2.07650000      0.00000000 #  c2        c=1        c=       hpan     nb==3   
2         2.85610000      0.00000000 #  c=1        c=       hpan      hpan     nb==3   
3         0.00000000      0.00000000 #  c2         si        c2        h       nb!=3   
4         0.00000000      0.00000000 #  c2         si        c3        h       nb!=3   
5         0.00000000      0.00000000 #  c2         si        h         h       nb!=3   
6         0.00000000      0.00000000 #  c3         si        h         h       nb!=3   
7         0.00000000      0.00000000 #  c=1        c2       hpan      hpan     nb!=3   
8         0.00000000      0.00000000 #  c=1        c2       hpan       si      nb!=3   
9         0.00000000      0.00000000 #  hpan       c2       hpan       si      nb!=3   
10        0.00000000      0.00000000 #  hpan       c2        si        si      nb!=3   
11        0.00000000      0.00000000 #  hpan       c3       hpan      hpan     nb!=3   
12        0.00000000      0.00000000 #  hpan       c3       hpan       si      nb!=3   

BondBond Coeffs  # class2

1        17.79130000      1.50600000      1.34000000 #  c2        c=1         c=   
2         3.43940000      1.50600000      1.08830000 #  c2        c=1       hpan   
3         3.74190000      1.89950000      1.89950000 #  c2         si         c2   
4         3.74190000      1.89950000      1.89950000 #  c2         si         c3   
5         3.92640000      1.89950000      1.47830000 #  c2         si          h   
6         3.92640000      1.89950000      1.47830000 #  c3         si          h   
7        10.10470000      1.34000000      1.08830000 #  c=        c=1       hpan   
8         9.99220000      1.50600000      1.10100000 #  c=1        c2       hpan   
9         0.00000000      1.50600000      1.89950000 #  c=1        c2         si   
10       10.10470000      1.34000000      1.08830000 #  c=1        c=       hpan   
11        4.64080000      1.47830000      1.47830000 #  h          si          h   
12        5.33160000      1.10100000      1.10100000 #  hpan       c2       hpan   
13        1.65610000      1.10100000      1.89950000 #  hpan       c2         si   
14        5.33160000      1.10100000      1.10100000 #  hpan       c3       hpan   
15        1.65610000      1.10100000      1.89950000 #  hpan       c3         si   
16        4.85060000      1.08830000      1.08830000 #  hpan       c=       hpan   
17        0.00000000      1.89950000      1.89950000 #  si         c2         si   

BondAngle Coeffs  # class2

1        31.58850000     24.22520000      1.50600000      1.34000000 #  c2        c=1         c=   
2        17.64520000     15.34920000      1.50600000      1.08830000 #  c2        c=1       hpan   
3        18.58050000     18.58050000      1.89950000      1.89950000 #  c2         si         c2   
4        18.58050000     18.58050000      1.89950000      1.89950000 #  c2         si         c3   
5        13.39610000      7.41040000      1.89950000      1.47830000 #  c2         si          h   
6        13.39610000      7.41040000      1.89950000      1.47830000 #  c3         si          h   
7        23.35880000     19.05920000      1.34000000      1.08830000 #  c=        c=1       hpan   
8        20.87670000     14.27410000      1.50600000      1.10100000 #  c=1        c2       hpan   
9         0.00000000      0.00000000      1.50600000      1.89950000 #  c=1        c2         si   
10       23.35880000     19.05920000      1.34000000      1.08830000 #  c=1        c=       hpan   
11        9.34670000      9.34670000      1.47830000      1.47830000 #  h          si          h   
12       18.10300000     18.10300000      1.10100000      1.10100000 #  hpan       c2       hpan   
13       16.69080000     18.27640000      1.10100000      1.89950000 #  hpan       c2         si   
14       18.10300000     18.10300000      1.10100000      1.10100000 #  hpan       c3       hpan   
15       16.69080000     18.27640000      1.10100000      1.89950000 #  hpan       c3         si   
16       17.97950000     17.97950000      1.08830000      1.08830000 #  hpan       c=       hpan   
17        0.00000000      0.00000000      1.89950000      1.89950000 #  si         c2         si   

AngleAngleTorsion Coeffs  # class2

1       -10.95120000    110.06000000    117.27000000 #  hpan       c2       c=1       hpan   
2         0.00000000    112.30000000    112.09770000 #  c=1        c2        si          h   
3        -7.00580000    124.88000000    124.88000000 #  hpan       c=       c=1       hpan   
4       -13.68260000    110.06000000    126.26000000 #  hpan       c2       c=1         c=   
5         0.00000000    126.26000000    112.30000000 #  c=        c=1        c2         si   
6         0.00000000    117.27000000    112.30000000 #  hpan      c=1        c2         si   
7        -7.69120000    124.88000000    126.26000000 #  hpan       c=       c=1         c2   
8         0.00000000    112.30000000    113.18550000 #  c=1        c2        si         c2   
9       -17.58020000    112.03550000    113.18550000 #  hpan       c2        si         c2   
10      -12.93410000    112.03550000    112.09770000 #  hpan       c2        si          h   
11      -17.58020000    112.03550000    113.18550000 #  hpan       c2        si         c3   
12        0.00000000    112.30000000    112.09770000 #  si         c2        si          h   
13        0.00000000    112.30000000    113.18550000 #  si         c2        si         c3   
14        0.00000000    112.30000000    113.18550000 #  si         c2        si         c2   
15      -17.58020000    112.03550000    113.18550000 #  hpan       c3        si         c2   
16      -12.93410000    112.03550000    112.09770000 #  hpan       c3        si          h   

EndBondTorsion Coeffs  # class2

1         0.22120000      0.00000000      0.09150000      0.59340000      0.00000000      0.04240000      1.10100000      1.08830000 #  hpan       c2       c=1       hpan   
2         0.00000000      0.00000000      0.00000000      0.00000000      0.00000000      0.00000000      1.50600000      1.47830000 #  c=1        c2        si          h   
3         0.71290000      0.51610000      0.00000000      0.71290000      0.51610000      0.00000000      1.08830000      1.08830000 #  hpan       c=       c=1       hpan   
4         1.97870000      0.00000000     -0.18050000      0.85660000      0.00000000      0.08110000      1.10100000      1.34000000 #  hpan       c2       c=1         c=   
5         0.00000000      0.00000000      0.00000000      0.00000000      0.00000000      0.00000000      1.34000000      1.89950000 #  c=        c=1        c2         si   
6         0.00000000      0.00000000      0.00000000      0.00000000      0.00000000      0.00000000      1.08830000      1.89950000 #  hpan      c=1        c2         si   
7         0.54060000     -0.16110000      0.00000000     -0.22010000      0.67700000      0.00000000      1.08830000      1.50600000 #  hpan       c=       c=1         c2   
8         0.00000000      0.00000000      0.00000000      0.00000000      0.00000000      0.00000000      1.50600000      1.89950000 #  c=1        c2        si         c2   
9         0.00000000      0.00000000      0.00000000      0.00000000      0.00000000      0.00000000      1.10100000      1.89950000 #  hpan       c2        si         c2   
10        0.00000000      0.00000000      0.00000000      0.00000000      0.00000000      0.00000000      1.10100000      1.47830000 #  hpan       c2        si          h   
11        0.00000000      0.00000000      0.00000000      0.00000000      0.00000000      0.00000000      1.10100000      1.89950000 #  hpan       c2        si         c3   
12        0.00000000      0.00000000      0.00000000      0.00000000      0.00000000      0.00000000      1.89950000      1.47830000 #  si         c2        si          h   
13        0.00000000      0.00000000      0.00000000      0.00000000      0.00000000      0.00000000      1.89950000      1.89950000 #  si         c2        si         c3   
14        0.00000000      0.00000000      0.00000000      0.00000000      0.00000000      0.00000000      1.89950000      1.89950000 #  si         c2        si         c2   
15        0.00000000      0.00000000      0.00000000      0.00000000      0.00000000      0.00000000      1.10100000      1.89950000 #  hpan       c3        si         c2   
16        0.00000000      0.00000000      0.00000000      0.00000000      0.00000000      0.00000000      1.10100000      1.47830000 #  hpan       c3        si          h   

MiddleBondTorsion Coeffs  # class2

1         1.87300000      0.00000000     -0.37020000      1.50600000 #  hpan       c2       c=1       hpan   
2         0.00000000      0.00000000      0.00000000      1.89950000 #  c=1        c2        si          h   
3         0.85580000      6.39110000      0.00000000      1.34000000 #  hpan       c=       c=1       hpan   
4        -1.57270000      0.00000000      0.65650000      1.50600000 #  hpan       c2       c=1         c=   
5         0.00000000      0.00000000      0.00000000      1.50600000 #  c=        c=1        c2         si   
6         0.00000000      0.00000000      0.00000000      1.50600000 #  hpan      c=1        c2         si   
7         1.12200000      6.06690000      0.00000000      1.34000000 #  hpan       c=       c=1         c2   
8         0.00000000      0.00000000      0.00000000      1.89950000 #  c=1        c2        si         c2   
9         0.00000000      0.00000000      0.00000000      1.89950000 #  hpan       c2        si         c2   
10        0.00000000      0.00000000     -0.59060000      1.89950000 #  hpan       c2        si          h   
11        0.00000000      0.00000000      0.00000000      1.89950000 #  hpan       c2        si         c3   
12        0.00000000      0.00000000      0.00000000      1.89950000 #  si         c2        si          h   
13        0.00000000      0.00000000      0.00000000      1.89950000 #  si         c2        si         c3   
14        0.00000000      0.00000000      0.00000000      1.89950000 #  si         c2        si         c2   
15        0.00000000      0.00000000      0.00000000      1.89950000 #  hpan       c3        si         c2   
16        0.00000000      0.00000000     -0.59060000      1.89950000 #  hpan       c3        si          h   

BondBond13 Coeffs  # class2

1         0.00000000      1.10100000      1.08830000 #  hpan       c2       c=1       hpan   
2         0.00000000      1.50600000      1.47830000 #  c=1        c2        si          h   
3         0.00000000      1.08830000      1.08830000 #  hpan       c=       c=1       hpan   
4         0.00000000      1.10100000      1.34000000 #  hpan       c2       c=1         c=   
5         0.00000000      1.34000000      1.89950000 #  c=        c=1        c2         si   
6         0.00000000      1.08830000      1.89950000 #  hpan      c=1        c2         si   
7         0.00000000      1.08830000      1.50600000 #  hpan       c=       c=1         c2   
8         0.00000000      1.50600000      1.89950000 #  c=1        c2        si         c2   
9         0.00000000      1.10100000      1.89950000 #  hpan       c2        si         c2   
10        0.00000000      1.10100000      1.47830000 #  hpan       c2        si          h   
11        0.00000000      1.10100000      1.89950000 #  hpan       c2        si         c3   
12        0.00000000      1.89950000      1.47830000 #  si         c2        si          h   
13        0.00000000      1.89950000      1.89950000 #  si         c2        si         c3   
14        0.00000000      1.89950000      1.89950000 #  si         c2        si         c2   
15        0.00000000      1.10100000      1.89950000 #  hpan       c3        si         c2   
16        0.00000000      1.10100000      1.47830000 #  hpan       c3        si          h   

AngleTorsion Coeffs  # class2

1         1.90610000      0.00000000      0.00000000     -0.06770000      0.00000000      0.00000000    110.06000000    117.27000000 #  hpan       c2       c=1       hpan   
2         0.00000000      0.00000000      0.00000000      0.00000000      0.00000000      0.00000000    112.30000000    112.09770000 #  c=1        c2        si          h   
3        -1.89110000      3.25400000      0.00000000     -1.89110000      3.25400000      0.00000000    124.88000000    124.88000000 #  hpan       c=       c=1       hpan   
4         1.59820000      0.00000000      0.00000000     -1.88730000      0.00000000      0.00000000    110.06000000    126.26000000 #  hpan       c2       c=1         c=   
5         0.00000000      0.00000000      0.00000000      0.00000000      0.00000000      0.00000000    126.26000000    112.30000000 #  c=        c=1        c2         si   
6         0.00000000      0.00000000      0.00000000      0.00000000      0.00000000      0.00000000    117.27000000    112.30000000 #  hpan      c=1        c2         si   
7        -1.51760000      3.71120000      0.00000000     -5.40820000      1.47310000      0.00000000    124.88000000    126.26000000 #  hpan       c=       c=1         c2   
8         0.00000000      0.00000000      0.00000000      0.00000000      0.00000000      0.00000000    112.30000000    113.18550000 #  c=1        c2        si         c2   
9         0.00000000      0.00000000      0.33820000      0.00000000      0.00000000      0.42720000    112.03550000    113.18550000 #  hpan       c2        si         c2   
10        0.00000000      0.00000000      0.00000000      0.00000000      0.00000000     -0.14230000    112.03550000    112.09770000 #  hpan       c2        si          h   
11        0.00000000      0.00000000      0.33820000      0.00000000      0.00000000      0.42720000    112.03550000    113.18550000 #  hpan       c2        si         c3   
12        0.00000000      0.00000000      0.00000000      0.00000000      0.00000000      0.00000000    112.30000000    112.09770000 #  si         c2        si          h   
13        0.00000000      0.00000000      0.00000000      0.00000000      0.00000000      0.00000000    112.30000000    113.18550000 #  si         c2        si         c3   
14        0.00000000      0.00000000      0.00000000      0.00000000      0.00000000      0.00000000    112.30000000    113.18550000 #  si         c2        si         c2   
15        0.00000000      0.00000000      0.33820000      0.00000000      0.00000000      0.42720000    112.03550000    113.18550000 #  hpan       c3        si         c2   
16        0.00000000      0.00000000      0.00000000      0.00000000      0.00000000     -0.14230000    112.03550000    112.09770000 #  hpan       c3        si          h   

AngleAngle Coeffs  # class2

1         0.00000000      0.00000000      0.00000000    126.26000000    124.88000000    117.27000000 #  c2        c=1        c=       hpan     nb==3   
2         0.00000000      0.00000000      0.00000000    124.88000000    115.49000000    124.88000000 #  c=1        c=       hpan      hpan     nb==3   
3         3.38270000      3.38270000      2.79630000    113.18550000    112.09770000    112.09770000 #  c2         si        c2        h       nb!=3   
4         3.38270000      3.38270000      2.79630000    113.18550000    112.09770000    112.09770000 #  c2         si        c3        h       nb!=3   
5         4.45590000      4.68090000      4.45590000    112.09770000    112.09770000    108.60510000 #  c2         si        h         h       nb!=3   
6         4.45590000      4.68090000      4.45590000    112.09770000    112.09770000    108.60510000 #  c3         si        h         h       nb!=3   
7        -0.11410000     -8.24640000     -0.11410000    110.06000000    110.06000000    107.66000000 #  c=1        c2       hpan      hpan     nb!=3   
8         0.00000000      0.00000000      0.00000000    110.06000000    112.03550000    112.30000000 #  c=1        c2       hpan       si      nb!=3   
9         0.00000000      0.00000000      2.20500000    107.66000000    112.03550000    112.03550000 #  hpan       c2       hpan       si      nb!=3   
10        0.00000000      0.00000000      0.00000000    112.03550000    112.30000000    112.03550000 #  hpan       c2        si        si      nb!=3   
11       -0.31570000     -0.31570000     -0.31570000    107.66000000    107.66000000    107.66000000 #  hpan       c3       hpan      hpan     nb!=3   
12        0.00000000      0.00000000      2.20500000    107.66000000    112.03550000    112.03550000 #  hpan       c3       hpan       si      nb!=3   

Atoms # full

 1  1  3   -0.253600   -10.075717391    9.609500000     7.606947826      0    0    0 #  c=/C
 2  1  4   -0.126800   -8.917817391    10.278000000     7.606947826      0    0    0 #  c=1/C
 3  1  1   -0.241000   -7.621417391     9.529500000     7.606947826      0    0    0 #  c2/C
 4  1  7    0.522000   -7.520917391     8.448400000     6.072247826      0    0    0 #  si/Si
 5  1  1   -0.376000   -5.892817391     7.508400000     6.072247826      0    0    0 #  c2/C
 6  1  7    0.522000   -5.792317391     6.427200000     4.537447826      0    0    0 #  si/Si
 7  1  1   -0.376000   -4.164217391     5.487300000     4.537447826      0    0    0 #  c2/C
 8  1  7    0.522000   -4.063817391     4.406100000     3.002747826      0    0    0 #  si/Si
 9  1  1   -0.376000   -2.435617391     3.466100000     3.002747826      0    0    0 #  c2/C
10  1  1   -0.376000   -0.707017391     1.445000000     1.468047826      0    0    0 #  c2/C
11  1  7    0.522000   -0.606617391     0.363900000    -0.066752174      0    0    0 #  si/Si
12  1  1   -0.376000    1.021582609    -0.576100000    -0.066752174      0    0    0 #  c2/C
13  1  7    0.522000    1.121982609    -1.657300000    -1.601452174      0    0    0 #  si/Si
14  1  1   -0.376000    2.750182609    -2.597200000    -1.601452174      0    0    0 #  c2/C
15  1  7    0.522000   -2.335217391     2.385000000     1.468047826      0    0    0 #  si/Si
16  1  1   -0.376000    4.478782609    -4.618400000    -3.136252174      0    0    0 #  c2/C
17  1  7    0.522000    4.579182609    -5.699500000    -4.670952174      0    0    0 #  si/Si
18  1  1   -0.376000    6.207282609    -6.639500000    -4.670952174      0    0    0 #  c2/C
19  1  1   -0.376000    7.935882609    -8.660600000    -6.205752174      0    0    0 #  c2/C
20  1  7    0.522000    8.036282609    -9.741800000    -7.740452174      0    0    0 #  si/Si
21  1  2   -0.294000    9.664482609    -10.681800000   -7.740452174      0    0    0 #  c3/C
22  1  7    0.522000    6.307782609    -7.720700000    -6.205752174      0    0    0 #  si/Si
23  1  7    0.522000    2.850582609    -3.678400000    -3.136252174      0    0    0 #  si/Si
24  1  6    0.126800   -11.028317391   10.159500000     7.606947826      0    0    0 #  hpan/H
25  1  6    0.126800   -10.075717391    8.509500000     7.606947826      0    0    0 #  hpan/H
26  1  6    0.126800   -8.917917391    11.378000000     7.606947826      0    0    0 #  hpan/H
27  1  6    0.053000   -6.775817391    10.253200000     7.606247826      0    0    0 #  hpan/H
28  1  6    0.053000   -7.562617391     8.889700000     8.515747826      0    0    0 #  hpan/H
29  1  5   -0.126000   -8.652217391     7.480200000     6.073147826      0    0    0 #  h/H
30  1  5   -0.126000   -7.599617391     9.304300000     4.856347826      0    0    0 #  h/H
31  1  6    0.053000   -5.047217391     8.232100000     6.071547826      0    0    0 #  hpan/H
32  1  6    0.053000   -5.834017391     6.868600000     6.981047826      0    0    0 #  hpan/H
33  1  5   -0.126000   -6.923617391     5.459000000     4.538347826      0    0    0 #  h/H
34  1  5   -0.126000   -5.871017391     7.283200000     3.321647826      0    0    0 #  h/H
35  1  6    0.053000   -3.318617391     6.211000000     4.536847826      0    0    0 #  hpan/H
36  1  6    0.053000   -4.105417391     4.847400000     5.446347826      0    0    0 #  hpan/H
37  1  5   -0.126000   -5.195017391     3.437900000     3.003647826      0    0    0 #  h/H
38  1  5   -0.126000   -4.142417391     5.262100000     1.786947826      0    0    0 #  h/H
39  1  6    0.053000   -1.590017391     4.189800000     3.002047826      0    0    0 #  hpan/H
40  1  6    0.053000   -2.376817391     2.826300000     3.911547826      0    0    0 #  hpan/H
41  1  6    0.053000    0.138582609     2.168700000     1.467347826      0    0    0 #  hpan/H
42  1  6    0.053000   -0.648217391     0.805200000     2.376847826      0    0    0 #  hpan/H
43  1  5   -0.126000   -1.737817391    -0.604300000    -0.065852174      0    0    0 #  h/H
44  1  5   -0.126000   -0.685217391     1.219800000    -1.282552174      0    0    0 #  h/H
45  1  6    0.053000    1.867182609     0.147600000    -0.067452174      0    0    0 #  hpan/H
46  1  6    0.053000    1.080382609    -1.215900000     0.842047826      0    0    0 #  hpan/H
47  1  5   -0.126000   -0.009217391    -2.625500000    -1.600552174      0    0    0 #  h/H
48  1  5   -0.126000    1.043282609    -0.801300000    -2.817352174      0    0    0 #  h/H
49  1  6    0.053000    3.595682609    -1.873500000    -1.602152174      0    0    0 #  hpan/H
50  1  6    0.053000    2.808982609    -3.237100000    -0.692652174      0    0    0 #  hpan/H
51  1  5   -0.126000   -3.466417391     1.416800000     1.468847826      0    0    0 #  h/H
52  1  5   -0.126000   -2.413817391     3.241000000     0.252147826      0    0    0 #  h/H
53  1  6    0.053000    5.324282609    -3.894700000    -3.136852174      0    0    0 #  hpan/H
54  1  6    0.053000    4.537582609    -5.258200000    -2.227452174      0    0    0 #  hpan/H
55  1  5   -0.126000    3.447982609    -6.667700000    -4.670052174      0    0    0 #  h/H
56  1  5   -0.126000    4.500482609    -4.843600000    -5.886752174      0    0    0 #  h/H
57  1  6    0.053000    7.052882609    -5.915800000    -4.671652174      0    0    0 #  hpan/H
58  1  6    0.053000    6.266182609    -7.279300000    -3.762152174      0    0    0 #  hpan/H
59  1  6    0.053000    8.781482609    -7.936900000    -6.206352174      0    0    0 #  hpan/H
60  1  6    0.053000    7.994682609    -9.300400000    -5.296852174      0    0    0 #  hpan/H
61  1  5   -0.126000    6.905082609    -10.710000000   -7.739552174      0    0    0 #  h/H
62  1  5   -0.126000    7.957682609    -8.885800000    -8.956252174      0    0    0 #  h/H
63  1  6    0.053000    9.723982609    -11.321800000   -8.649052174      0    0    0 #  hpan/H
64  1  6    0.053000   10.510082609    -9.958100000    -7.741152174      0    0    0 #  hpan/H
65  1  6    0.053000    9.723282609    -11.321600000   -6.831652174      0    0    0 #  hpan/H
66  1  5   -0.126000    5.176482609    -8.688800000    -6.204852174      0    0    0 #  h/H
67  1  5   -0.126000    6.229082609    -6.864700000    -7.421552174      0    0    0 #  h/H
68  1  5   -0.126000    1.719382609    -4.646600000    -3.135352174      0    0    0 #  h/H
69  1  5   -0.126000    2.771882609    -2.822400000    -4.352052174      0    0    0 #  h/H

Bonds

  1   6     1     2  
  2   7     1    24  
  3   7     1    25  
  4   1     3     2  
  5   8     2    26  
  6   3     3     4  
  7   2     3    27  
  8   2     3    28  
  9   3     5     4  
 10   9    29     4  
 11   9    30     4  
 12   3     5     6  
 13   2     5    31  
 14   2     5    32  
 15   3     7     6  
 16   9    33     6  
 17   9    34     6  
 18   3     7     8  
 19   2     7    35  
 20   2     7    36  
 21   3     9     8  
 22   9    37     8  
 23   9    38     8  
 24   3     9    15  
 25   2     9    39  
 26   2     9    40  
 27   3    10    11  
 28   3    10    15  
 29   2    10    41  
 30   2    10    42  
 31   3    12    11  
 32   9    43    11  
 33   9    44    11  
 34   3    12    13  
 35   2    12    45  
 36   2    12    46  
 37   3    14    13  
 38   9    47    13  
 39   9    48    13  
 40   3    14    23  
 41   2    14    49  
 42   2    14    50  
 43   9    51    15  
 44   9    52    15  
 45   3    16    17  
 46   3    16    23  
 47   2    16    53  
 48   2    16    54  
 49   3    18    17  
 50   9    55    17  