HEADER,  water_packmol_atom_name_as_atom_typeID.pdb  read w/ pdb2lmp > all2lmp: v1.13 / 1 December 2023  Class: 2

30 atoms
20 bonds
10 angles

2 atom types
1 bond types
1 angle types

-5.684833333 3.900166667 xlo xhi
-5.773966667 4.503033333 ylo yhi
-4.376233333 5.150766667 zlo zhi

Masses

1    1.00797000  #  hw   
2   15.99940000  #  o*   

Pair Coeffs  # lj/class2/coul/long

1         0.01300000      1.09800000 #  hw   
2         0.26000000      3.61000000 #  o*   

Bond Coeffs  # class2

1         0.97000000    563.28000000  -1428.22000000   1902.12000000 #  hw          o*   

Angle Coeffs  # class2

1       103.70000000     49.84000000    -11.60000000     -8.00000000 #  hw         o*         hw   

BondBond Coeffs  # class2

1        -9.50000000      0.97000000      0.97000000 #  hw         o*         hw   

BondAngle Coeffs  # class2

1        22.35000000     22.35000000      0.97000000      0.97000000 #  hw         o*         hw   

Atoms # full

  1     1   2   -0.820000   -0.459833333     3.118033333    -1.544233333      0    0    0 #  o*/O
  2     1   1    0.410000   -0.717833333     3.653033333    -0.812233333      0    0    0 #  hw/H
  3     1   1    0.410000   -0.247833333     3.744033333    -2.215233333      0    0    0 #  hw/H
  4     2   2   -0.820000   -4.894833333     3.693033333    -1.883233333      0    0    0 #  o*/O
  5     2   1    0.410000   -3.973833333     3.535033333    -2.009233333      0    0    0 #  hw/H
  6     2   1    0.410000   -5.184833333     4.003033333    -2.724233333      0    0    0 #  hw/H
  7     3   2   -0.820000   -1.607833333    -3.557966667     2.229766667      0    0    0 #  o*/O
  8     3   1    0.410000   -1.299833333    -4.447966667     2.273766667      0    0    0 #  hw/H
  9     3   1    0.410000   -0.842833333    -3.046966667     2.428766667      0    0    0 #  hw/H
  10    4   2   -0.820000    0.947166667    -4.464966667     3.323766667      0    0    0 #  o*/O
  11    4   1    0.410000    1.598166667    -3.810966667     3.131766667      0    0    0 #  hw/H
  12    4   1    0.410000    1.366166667    -5.273966667     3.083766667      0    0    0 #  hw/H
  13    5   2   -0.820000   -1.366833333    -1.059966667     4.475766667      0    0    0 #  o*/O
  14    5   1    0.410000   -0.672833333    -1.681966667     4.334766667      0    0    0 #  hw/H
  15    5   1    0.410000   -0.912833333    -0.253966667     4.650766667      0    0    0 #  hw/H
  16    6   2   -0.820000    1.969166667    -3.168966667    -2.154233333      0    0    0 #  o*/O
  17    6   1    0.410000    1.816166667    -3.976966667    -2.614233333      0    0    0 #  hw/H
  18    6   1    0.410000    1.119166667    -2.763966667    -2.125233333      0    0    0 #  hw/H
  19    7   2   -0.820000    2.553166667     2.928033333     1.216766667      0    0    0 #  o*/O
  20    7   1    0.410000    3.273166667     2.379033333     0.957766667      0    0    0 #  hw/H
  21    7   1    0.410000    1.999166667     2.349033333     1.713766667      0    0    0 #  hw/H
  22    8   2   -0.820000   -0.602833333    -0.842966667    -0.479233333      0    0    0 #  o*/O
  23    8   1    0.410000    0.040166667    -0.469966667     0.099766667      0    0    0 #  hw/H
  24    8   1    0.410000   -1.042833333    -0.091966667    -0.839233333      0    0    0 #  hw/H
  25    9   2   -0.820000   -0.620833333     0.584033333    -3.876233333      0    0    0 #  o*/O
  26    9   1    0.410000   -0.519833333     1.256033333    -3.224233333      0    0    0 #  hw/H
  27    9   1    0.410000   -0.147833333    -0.147966667    -3.518233333      0    0    0 #  hw/H
  28    10  2   -0.820000    2.498166667     2.378033333    -1.296233333      0    0    0 #  o*/O
  29    10  1    0.410000    2.536166667     3.316033333    -1.211233333      0    0    0 #  hw/H
  30    10  1    0.410000    3.400166667     2.125033333    -1.394233333      0    0    0 #  hw/H

Bonds

  1   1     2     1  
  2   1     3     1  
  3   1     5     4  
  4   1     6     4  
  5   1     8     7  
  6   1     9     7  
  7   1    11    10  
  8   1    12    10  
  9   1    14    13  
 10   1    15    13  
 11   1    17    16  
 12   1    18    16  
 13   1    20    19  
 14   1    21    19  
 15   1    23    22  
 16   1    24    22  
 17   1    26    25  
 18   1    27    25  
 19   1    29    28  
 20   1    30    28  

Angles

  1   1     2     1     3  
  2   1     5     4     6  
  3   1     8     7     9  
  4   1    11    10    12  
  5   1    14    13    15  
  6   1    17    16    18  
  7   1    20    19    21  
  8   1    23    22    24  
  9   1    26    25    27  
 10   1    29    28    30  
