HEADER,  detda.mol  read w/ mol2lmp > atom_typing v1.11 / 14 April 2025 w/DREIDING atom-types > all2lmp: v1.22 / 14 April 2025  Class: d

31 atoms
31 bonds
54 angles
68 dihedrals
8 impropers

4 atom types
7 bond types
3 angle types
4 dihedral types
2 improper types

-4.210490323 3.840909677 xlo xhi
-4.977548387 3.953251613 ylo yhi
-1.415503226 1.415896774 zlo zhi

Masses

1   12.01100000  #  C_3  
2   12.01100000  #  C_R  
3    1.00800000  #  H_   
4   14.00700000  #  N_2  

Pair Coeffs  # lj/cut/coul/long

1         0.09510000      3.47299047 #  C_3  
2         0.09510000      3.47299047 #  C_R  
3         0.01520000      2.84642140 #  H_   
4         0.07740000      3.26256020 #  N_2  

Bond Coeffs  # harmonic

1       350.00000000      1.53000000 #  C_3        C_3   
2       350.00000000      1.46000000 #  C_3        C_R   
3       350.00000000      1.09000000 #  H_         C_3   
4       525.00000000      1.39000000 #  C_R        C_R   
5       350.00000000      1.02000000 #  H_         C_R   
6       525.00000000      1.30500000 #  C_R        N_2   
7       350.00000000      0.93500000 #  H_         N_2   

Angle Coeffs  # harmonic

1        50.00000000    109.47100000 #  X         C_3          X   
2        50.00000000    120.00000000 #  X         C_R          X   
3        50.00000000    120.00000000 #  X         N_2          X   

Dihedral Coeffs  # harmonic

1         1.00000000               1               3 #  X         C_3       C_3          X   
2         0.50000000              -1               6 #  X         C_R       C_3          X   
3        12.50000000              -1               2 #  X         C_R       C_R          X   
4         2.50000000               1               2 #  X         N_2       C_R          X   

Improper Coeffs  # umbrella

1        40.00000000      0.00000000 #  C_R        X         X         X       nb==3   
2        40.00000000      0.00000000 #  N_2        X         X         X       nb==3   

Atoms # full

  1     1   2   -0.003987   -1.596190323     0.232051613    -0.000003226      0    0    0 #  C_R/C
  2     1   2    0.045155   -0.977190323    -0.971748387    -0.000003226      0    0    0 #  C_R/C
  3     1   2   -0.024575    0.371109677    -1.056248387    -0.000003226      0    0    0 #  C_R/C
  4     1   2   -0.052381    1.062509677     0.099851613    -0.000103226      0    0    0 #  C_R/C
  5     1   2   -0.024575    0.494309677     1.315351613    -0.000103226      0    0    0 #  C_R/C
  6     1   2    0.045155   -0.851090323     1.358051613    -0.000003226      0    0    0 #  C_R/C
  7     1   1   -0.030308    1.326109677     2.590051613    -0.000103226      0    0    0 #  C_3/C
  8     1   1   -0.062612    2.855209677     2.449751613    -0.000003226      0    0    0 #  C_3/C
  9     1   1   -0.030308    1.247009677    -2.308948387    -0.000003226      0    0    0 #  C_3/C
  10    1   1   -0.062612    0.690509677    -3.736448387     0.000196774      0    0    0 #  C_3/C
  11    1   1   -0.037205   -3.111990323     0.385051613    -0.000003226      0    0    0 #  C_3/C
  12    1   4   -0.369160   -1.420690323     2.493451613    -0.000103226      0    0    0 #  N_2/N
  13    1   4   -0.369160   -1.693590323    -2.018248387     0.000096774      0    0    0 #  N_2/N
  14    1   3    0.063982    2.160909677     0.031151613    -0.000103226      0    0    0 #  H_/H
  15    1   3    0.032373    1.047309677     3.184751613    -0.904103226      0    0    0 #  H_/H
  16    1   3    0.032373    1.047209677     3.184951613     0.903696774      0    0    0 #  H_/H
  17    1   3    0.023873    3.340909677     3.453251613    -0.000003226      0    0    0 #  H_/H
  18    1   3    0.023873    3.221009677     1.916951613     0.907496774      0    0    0 #  H_/H
  19    1   3    0.023873    3.221109677     1.916851613    -0.907403226      0    0    0 #  H_/H
  20    1   3    0.032373    1.910909677    -2.234748387    -0.897603226      0    0    0 #  H_/H
  21    1   3    0.032373    1.911009677    -2.234648387     0.897496774      0    0    0 #  H_/H
  22    1   3    0.023873    1.523909677    -4.477548387     0.000196774      0    0    0 #  H_/H
  23    1   3    0.023873    0.093509677    -3.950848387     0.915896774      0    0    0 #  H_/H
  24    1   3    0.023873    0.093509677    -3.951048387    -0.915503226      0    0    0 #  H_/H
  25    1   3    0.028834   -3.710490323    -0.546248387    -0.000203226      0    0    0 #  H_/H
  26    1   3    0.028834   -3.442090323     0.941851613     0.906896774      0    0    0 #  H_/H
  27    1   3    0.028834   -3.442090323     0.942151613    -0.906703226      0    0    0 #  H_/H
  28    1   3    0.138340   -2.463690323     2.591451613    -0.000003226      0    0    0 #  H_/H
  29    1   3    0.138340   -0.868790323     3.384151613    -0.000103226      0    0    0 #  H_/H
  30    1   3    0.138340   -1.302090323    -2.982248387     0.000096774      0    0    0 #  H_/H
  31    1   3    0.138340   -2.738090323    -2.002148387     0.000096774      0    0    0 #  H_/H

Bonds

  1   4     1     2  
  2   4     1     6  
  3   2    11     1  
  4   4     2     3  
  5   6     2    13  
  6   4     3     4  
  7   2     9     3  
  8   4     4     5  
  9   5    14     4  
 10   4     5     6  
 11   2     7     5  
 12   6     6    12  
 13   1     7     8  
 14   3    15     7  
 15   3    16     7  
 16   3    17     8  
 17   3    18     8  
 18   3    19     8  
 19   1     9    10  
 20   3    20     9  
 21   3    21     9  
 22   3    22    10  
 23   3    23    10  
 24   3    24    10  
 25   3    25    11  
 26   3    26    11  
 27   3    27    11  
 28   7    28    12  
 29   7    29    12  
 30   7    30    13  
 31   7    31    13  

Angles

  1   2     2     1     6  
  2   2     6     1    11  
  3   2     2     1    11  
  4   2     3     2    13  
  5   2     1     2    13  
  6   2     1     2     3  
  7   2     2     3     9  
  8   2     2     3     4  
  9   2     4     3     9  
 10   2     5     4    14  
 11   2     3     4     5  
 12   2     3     4    14  
 13   2     4     5     6  
 14   2     6     5     7  
 15   2     4     5     7  
 16   2     1     6    12  
 17   2     1     6     5  
 18   2     5     6    12  
 19   1     5     7    15  
 20   1     8     7    16  
 21   1     5     7     8  
 22   1     8     7    15  
 23   1    15     7    16  
 24   1     5     7    16  
 25   1    17     8    19  
 26   1     7     8    19  
 27   1    17     8    18  
 28   1     7     8    18  
 29   1    18     8    19  
 30   1     7     8    17  
 31   1     3     9    10  
 32   1    10     9    20  
 33   1     3     9    21  
 34   1     3     9    20  
 35   1    20     9    21  
 36   1    10     9    21  
 37   1     9    10    22  
 38   1     9    10    24  
 39   1    22    10    24  
 40   1    23    10    24  
 41   1     9    10    23  
 42   1    22    10    23  
 43   1    25    11    26  
 44   1     1    11    26  
 45   1    26    11    27  
 46   1     1    11    25  
 47   1     1    11    27  
 48   1    25    11    27  
 49   3     6    12    29  
 50   3     6    12    28  
 51   3    28    12    29  
 52   3    30    13    31  
 53   3     2    13    31  
 54   3     2    13    30  

Dihedrals

  1   3    11     1     6    12  
  2   2     6     1    11    26  
  3   2     2     1    11    27  
  4   3     2     1     6    12  
  5   3     6     1     2    13  
  6   2     6     1    11    25  
  7   2     2     1    11    26  
  8   3    11     1     2    13  
  9   3     2     1     6     5  
 10   2     6     1    11    27  
 11   2     2     1    11    25  
 12   3     3     2     1     6  
 13   4    30    13     2     1  
 14   3     1     2     3     4  
 15   4    31    13     2     3  
 16   3     3     2     1    11  
 17   3     1     2     3     9  
 18   4    30    13     2     3  
 19   4    31    13     2     1  
 20   2     4     3     9    10  
 21   3     4     3     2    13  
 22   2     2     3     9    20  
 23   3     9     3     4    14  
 24   3     2     3     4     5  
 25   2     4     3     9    21  
 26   3     2     3     4    14  
 27   2     2     3     9    10  
 28   3     9     3     2    13  
 29   2     4     3     9    20  
 30   2     2     3     9    21  
 31   3     3     4     5     6  
 32   3     5     4     3     9  
 33   3     3     4     5     7  
 34   2     4     5     7    15  
 35   2     6     5     7    15  
 36   3     7     5     6    12  
 37   2     4     5     7     8  
 38   3     4     5     6    12  
 39   2     6     5     7     8  
 40   3     7     5     4    14  
 41   2     4     5     7    16  
 42   3     6     5     4    14  
 43   2     6     5     7    16  
 44   4    28    12     6     1  
 45   3     1     6     5     4  
 46   3     1     6     5     7  
 47   4    28    12     6     5  
 48   4    29    12     6     1  
 49   3     5     6     1    11  
 50   4    29    12     6     5  
 51   1    16     7     8    18  
 52   1    15     7     8    19  
 53   1     5     7     8    17  
 54   1    16     7     8    17  
 55   1    15     7     8    18  
 56   1     5     7     8    19  
 57   1    16     7     8    19  
 58   1    15     7     8    17  
 59   1     5     7     8    18  
 60   1    21     9    10    23  
 61   1     3     9    10    22  
 62   1    20     9    10    22  
 63   1    21     9    10    22  
 64   1     3     9    10    24  
 65   1    20     9    10    24  
 66   1    21     9    10    24  
 67   1     3     9    10    23  
 68   1    20     9    10    23  

Impropers

  1   1     1     2     6    11  
  2   1     2     1     3    13  
  3   1     3     2     4     9  
  4   1     4     3     5    14  
  5   1     5     4     6     7  
  6   1     6     1     5    12  
  7   2    12     6    28    29  
  8   2    13     2    30    31  
