# LAMMPS data file written by OVITO Basic 3.14.1

9 atoms
9 bonds
13 angles
16 dihedrals
4 impropers

3 atom types
1176 bond types
30 angle types
17576 dihedral types
3 improper types

  -10 10.0 xlo xhi
  -10 10.0 ylo yhi
  -10 10.0 zlo zhi

Masses

1   1.008  # H
2  12.011  # C_R
3  15.999  # O_R

Atoms  # full

1 1 3 -0.19 -0.79054 0.74431 0.0
2 1 2 -0.019 -1.90955 0.0554 0.0
3 1 2 -0.019 0.22728 -0.08685 0.0
4 1 2 -0.154 -1.61566 -1.29147 0.0
5 1 2 -0.154 -0.24256 -1.38288 0.0
6 1 1 0.142 -2.89876 0.49321 0.0
7 1 1 0.126 -2.32177 -2.11098 0.0
8 1 1 0.126 0.34869 -2.28875 0.0
9 1 1 0.142 1.26579 0.21597 0.0

Bonds

1 486 1 2
2 486 1 3
3 231 2 4
4 211 2 6
5 231 3 5
6 211 3 9
7 231 4 5
8 211 4 7
9 211 5 8

Angles

1 30 1 2 4
2 30 1 3 5
3 30 1 2 6
4 30 1 3 9
5 30 2 1 3
6 30 2 4 5
7 30 3 5 4
8 30 2 4 7
9 30 3 5 8
10 30 4 2 6
11 30 4 5 8
12 30 5 3 9
13 30 5 4 7

Dihedrals

1 1504 1 2 4 5
2 1504 1 3 5 4
3 1504 1 2 4 7
4 1504 1 3 5 8
5 1504 2 4 5 3
6 1504 2 4 5 8
7 1504 3 5 4 7
8 1504 4 5 3 9
9 1504 5 4 2 6
10 1504 6 2 4 7
11 1504 7 4 5 8
12 1504 8 5 3 9
13 1524 2 1 3 5
14 1524 3 1 2 4
15 1524 2 1 3 9
16 1524 3 1 2 6

Impropers

1 2 2 1 4 6
2 2 3 1 5 9
3 2 4 2 5 7
4 2 5 3 4 8
