 > atom_typing v1.11 / 14 April 2025 w/DREIDING atom-types

9 atoms
9 bonds

3 atom types
1 bond types

-10 10.0 xlo xhi
-10 10.0 ylo yhi
-10 10.0 zlo zhi

Masses

 1   1.00800   #  H    
 2   12.01100  #  C    
 3   15.99900  #  O    

Bond Coeffs

 1  #      1

Atoms # full

  1     1   3  -0.473103   -0.790540000     0.744310000     0.000000000   0  0  0    #     O        Sp2     avg-angle: 109.146434      type: O_R1
  2     1   2   0.088783   -1.909550000     0.055400000     0.000000000   0  0  0    #     C        Sp2     avg-angle: 120.000000      type: C_R
  3     1   2   0.088783    0.227280000    -0.086850000     0.000000000   0  0  0    #     C        Sp2     avg-angle: 120.000000      type: C_R
  4     1   2  -0.024900   -1.615660000    -1.291470000     0.000000000   0  0  0    #     C        Sp2     avg-angle: 120.000000      type: C_R
  5     1   2  -0.024900   -0.242560000    -1.382880000     0.000000000   0  0  0    #     C        Sp2     avg-angle: 120.000000      type: C_R
  6     1   1   0.106015   -2.898760000     0.493210000     0.000000000   0  0  0    #     H   Terminal     avg-angle: 125.345458      type: H_
  7     1   1   0.066654   -2.321770000    -2.110980000     0.000000000   0  0  0    #     H   Terminal     avg-angle: 126.941098      type: H_
  8     1   1   0.066654    0.348690000    -2.288750000     0.000000000   0  0  0    #     H   Terminal     avg-angle: 126.940978      type: H_
  9     1   1   0.106015    1.265790000     0.215970000     0.000000000   0  0  0    #     H   Terminal     avg-angle: 125.345683      type: H_

Bonds

1  1  1  2 
2  1  1  3 
3  1  2  4 
4  1  2  6 
5  1  3  5 
6  1  3  9 
7  1  4  5 
8  1  4  7 
9  1  5  8 
