> atom_typing v1.11 / 14 April 2025 w/DREIDING atom-types > all2lmp: v1.22 / 14 April 2025  Class: d

9 atoms
9 bonds
13 angles
16 dihedrals
4 impropers

3 atom types
3 bond types
2 angle types
2 dihedral types
1 improper types

-10.000000000 10.000000000 xlo xhi
-10.000000000 10.000000000 ylo yhi
-10.000000000 10.000000000 zlo zhi

Atom Type Labels

 1  C_R
 2  H_
 3  O_R

Bond Type Labels

 1  C_R-C_R
 2  H_-C_R
 3  C_R-O_R

Angle Type Labels

 1  X-C_R-X
 2  X-O_R-X

Dihedral Type Labels

 1  X-C_R-C_R-X
 2  X-O_R-C_R-X

Improper Type Labels

 1  C_R-X-X-X-nb==3

Masses

1   12.01100000  #  C_R  
2    1.00800000  #  H_   
3   15.99900000  #  O_R  

Pair Coeffs  # lj/cut/coul/long

1         0.09510000      3.47299047 #  C_R  
2         0.01520000      2.84642140 #  H_   
3         0.09570000      3.03315378 #  O_R  

Bond Coeffs  # harmonic

1       525.00000000      1.39000000 #  C_R        C_R   
2       350.00000000      1.02000000 #  H_         C_R   
3       525.00000000      1.35000000 #  C_R        O_R   

Angle Coeffs  # harmonic

1        50.00000000    120.00000000 #  X         C_R          X   
2        50.00000000    120.00000000 #  X         O_R          X   

Dihedral Coeffs  # harmonic

1         3.12500000              -1               2 #  X         C_R       C_R          X   
2         3.12500000              -1               2 #  X         O_R       C_R          X   

Improper Coeffs  # umbrella

1        40.00000000      0.00000000 #  C_R        X         X         X       nb==3   

Atoms # full

  1     1   3   -0.473103   -0.790540000     0.744310000     0.000000000      0    0    0 #  O_R/O
  2     1   1    0.088783   -1.909550000     0.055400000     0.000000000      0    0    0 #  C_R/C
  3     1   1    0.088783    0.227280000    -0.086850000     0.000000000      0    0    0 #  C_R/C
  4     1   1   -0.024900   -1.615660000    -1.291470000     0.000000000      0    0    0 #  C_R/C
  5     1   1   -0.024900   -0.242560000    -1.382880000     0.000000000      0    0    0 #  C_R/C
  6     1   2    0.106015   -2.898760000     0.493210000     0.000000000      0    0    0 #  H_/H
  7     1   2    0.066654   -2.321770000    -2.110980000     0.000000000      0    0    0 #  H_/H
  8     1   2    0.066654    0.348690000    -2.288750000     0.000000000      0    0    0 #  H_/H
  9     1   2    0.106015    1.265790000     0.215970000     0.000000000      0    0    0 #  H_/H

Bonds

  1   3     2     1  
  2   3     3     1  
  3   1     2     4  
  4   2     6     2  
  5   1     3     5  
  6   2     9     3  
  7   1     4     5  
  8   2     7     4  
  9   2     8     5  

Angles

  1   2     2     1     3  
  2   1     1     2     6  
  3   1     4     2     6  
  4   1     1     2     4  
  5   1     5     3     9  
  6   1     1     3     5  
  7   1     1     3     9  
  8   1     2     4     5  
  9   1     2     4     7  
 10   1     5     4     7  
 11   1     4     5     8  
 12   1     3     5     4  
 13   1     3     5     8  

Dihedrals

  1   2     2     1     3     9  
  2   2     3     1     2     6  
  3   2     2     1     3     5  
  4   2     3     1     2     4  
  5   1     6     2     4     7  
  6   1     1     2     4     7  
  7   1     1     2     4     5  
  8   1     1     3     5     8  
  9   1     1     3     5     4  
 10   1     2     4     5     3  
 11   1     7     4     5     8  
 12   1     5     4     2     6  
 13   1     2     4     5     8  
 14   1     4     5     3     9  
 15   1     3     5     4     7  
 16   1     8     5     3     9  

Impropers

  1   1     2     1     4     6  
  2   1     3     1     5     9  
  3   1     4     2     5     7  
  4   1     5     3     4     8  
