LAMMPS data file Created by LigParGen - (Written by Leela S. Dodda)

      31 atoms
      31 bonds
      54 angles
      68 dihedrals
      18 impropers
 
      31 atom types
      31 bond types
      54 angle types
      68 dihedral types
      18 improper types
 
   -4.612750    45.387250 xlo xhi
    0.079310    50.079310 ylo yhi
   -2.235800    47.764200 zlo zhi

Masses

       1     12.011  
       2     12.011  
       3     12.011  
       4     12.011  
       5     12.011  
       6     12.011  
       7     12.011  
       8     12.011  
       9     12.011  
      10     12.011  
      11     12.011  
      12     14.007  
      13     14.007  
      14      1.008  
      15      1.008  
      16      1.008  
      17      1.008  
      18      1.008  
      19      1.008  
      20      1.008  
      21      1.008  
      22      1.008  
      23      1.008  
      24      1.008  
      25      1.008  
      26      1.008  
      27      1.008  
      28      1.008  
      29      1.008  
      30      1.008  
      31      1.008  

Pair Coeffs 

       1      0.070  3.5500000 
       2      0.070  3.5500000 
       3      0.070  3.5500000 
       4      0.070  3.5500000 
       5      0.070  3.5500000 
       6      0.070  3.5500000 
       7      0.066  3.5000000 
       8      0.066  3.5000000 
       9      0.066  3.5000000 
      10      0.066  3.5000000 
      11      0.066  3.5000000 
      12      0.170  3.3000000 
      13      0.170  3.3000000 
      14      0.030  2.4200000 
      15      0.030  2.5000000 
      16      0.030  2.5000000 
      17      0.030  2.5000000 
      18      0.030  2.5000000 
      19      0.030  2.5000000 
      20      0.030  2.5000000 
      21      0.030  2.5000000 
      22      0.030  2.5000000 
      23      0.030  2.5000000 
      24      0.030  2.5000000 
      25      0.030  2.5000000 
      26      0.030  2.5000000 
      27      0.030  2.5000000 
      28      0.000  0.0000000 
      29      0.000  0.0000000 
      30      0.000  0.0000000 
      31      0.000  0.0000000 

Bond Coeffs 

       1   469.0000     1.4000 
       2   469.0000     1.4000 
       3   469.0000     1.4000 
       4   469.0000     1.4000 
       5   469.0000     1.4000 
       6   317.0000     1.5100 
       7   268.0000     1.5290 
       8   317.0000     1.5100 
       9   268.0000     1.5290 
      10   317.0000     1.5100 
      11   481.0000     1.3400 
      12   481.0000     1.3400 
      13   367.0000     1.0800 
      14   340.0000     1.0900 
      15   340.0000     1.0900 
      16   340.0000     1.0900 
      17   340.0000     1.0900 
      18   340.0000     1.0900 
      19   340.0000     1.0900 
      20   340.0000     1.0900 
      21   340.0000     1.0900 
      22   340.0000     1.0900 
      23   340.0000     1.0900 
      24   340.0000     1.0900 
      25   340.0000     1.0900 
      26   340.0000     1.0900 
      27   434.0000     1.0100 
      28   434.0000     1.0100 
      29   434.0000     1.0100 
      30   434.0000     1.0100 
      31   469.0000     1.4000 

Angle Coeffs 

       1     63.000    120.000
       2     63.000    120.000
       3     63.000    120.000
       4     63.000    120.000
       5     70.000    120.000
       6     63.000    114.000
       7     70.000    120.000
       8     63.000    114.000
       9     70.000    120.000
      10     70.000    120.000
      11     70.000    120.000
      12     35.000    120.000
      13     35.000    109.500
      14     35.000    109.500
      15     37.500    110.700
      16     37.500    110.700
      17     37.500    110.700
      18     35.000    109.500
      19     35.000    109.500
      20     37.500    110.700
      21     37.500    110.700
      22     37.500    110.700
      23     35.000    109.500
      24     35.000    109.500
      25     35.000    109.500
      26     35.000    116.000
      27     35.000    116.000
      28     35.000    116.000
      29     35.000    116.000
      30     33.000    107.800
      31     43.600    106.400
      32     33.000    107.800
      33     63.000    120.000
      34     37.500    110.700
      35     33.000    107.800
      36     70.000    120.000
      37     33.000    107.800
      38     33.000    107.800
      39     70.000    120.000
      40     70.000    120.000
      41     33.000    107.800
      42     35.000    120.000
      43     33.000    107.800
      44     70.000    120.000
      45     33.000    107.800
      46     70.000    120.000
      47     37.500    110.700
      48     33.000    107.800
      49     33.000    107.800
      50     33.000    107.800
      51     63.000    120.000
      52     43.600    106.400
      53     37.500    110.700
      54     37.500    110.700

Dihedral Coeffs  

       1      0.000      7.250      0.000      0.000 
       2      0.000      7.250      0.000      0.000 
       3      0.000      7.250      0.000      0.000 
       4      0.000      0.000      0.000      0.000 
       5      0.000      0.000      0.000      0.000 
       6      0.000      0.000      0.462      0.000 
       7      0.000      0.000      0.462      0.000 
       8      0.000      0.000      0.000      0.000 
       9      0.000      2.030      0.000      0.000 
      10      0.000      2.030      0.000      0.000 
      11      0.000      0.000      0.000      0.000 
      12      0.000      0.000      0.000      0.000 
      13      0.000      0.000      0.000      0.000 
      14      0.000      0.000      0.000      0.000 
      15      0.000      7.250      0.000      0.000 
      16      0.000      7.250      0.000      0.000 
      17      0.000      7.250      0.000      0.000 
      18      0.000      0.000      0.300      0.000 
      19      0.000      7.250      0.000      0.000 
      20      0.000      0.000      0.462      0.000 
      21      0.000      7.250      0.000      0.000 
      22      0.000      7.250      0.000      0.000 
      23      0.000      0.000      0.300      0.000 
      24      0.000      0.000      0.300      0.000 
      25      0.000      0.000      0.000      0.000 
      26      0.000      0.000      0.300      0.000 
      27      0.000      0.000      0.000      0.000 
      28      0.000      0.000      0.000      0.000 
      29      0.000      0.000      0.000      0.000 
      30      0.000      0.000      0.300      0.000 
      31      0.000      2.030      0.000      0.000 
      32      0.000      7.250      0.000      0.000 
      33      0.000      7.250      0.000      0.000 
      34      0.000      0.000      0.000      0.000 
      35      0.000      0.000      0.462      0.000 
      36      0.000      7.250      0.000      0.000 
      37      0.000      2.030      0.000      0.000 
      38      0.000      7.250      0.000      0.000 
      39      0.000      0.000      0.462      0.000 
      40      0.000      7.250      0.000      0.000 
      41      0.000      7.250      0.000      0.000 
      42      0.000      0.000      0.000      0.000 
      43      0.000      7.250      0.000      0.000 
      44      0.000      7.250      0.000      0.000 
      45      0.000      0.000      0.300      0.000 
      46      0.000      7.250      0.000      0.000 
      47      0.000      7.250      0.000      0.000 
      48      0.000      2.030      0.000      0.000 
      49      0.000      0.000      0.300      0.000 
      50      0.000      2.030      0.000      0.000 
      51      0.000      0.000      0.462      0.000 
      52      0.000      0.000      0.300      0.000 
      53      0.000      0.000      0.000      0.000 
      54      0.000      0.000      0.000      0.000 
      55      0.000      0.000      0.000      0.000 
      56      0.000      2.030      0.000      0.000 
      57      0.000      0.000      0.300      0.000 
      58      0.000      7.250      0.000      0.000 
      59      0.000      7.250      0.000      0.000 
      60      0.000      0.000      0.300      0.000 
      61      0.000      0.000      0.000      0.000 
      62      0.000      0.000      0.000      0.000 
      63      0.000      7.250      0.000      0.000 
      64      0.000      0.000      0.300      0.000 
      65      0.000      2.030      0.000      0.000 
      66      0.000      7.250      0.000      0.000 
      67      0.000      0.000      0.300      0.000 
      68      0.000      7.250      0.000      0.000 

Improper Coeffs 

       1      2.500      -1       2 
       2      2.500      -1       2 
       3      2.500      -1       2 
       4      2.500      -1       2 
       5      2.500      -1       2 
       6      2.500      -1       2 
       7      0.000      -1       2 
       8      0.000      -1       2 
       9      0.000      -1       2 
      10      0.000      -1       2 
      11      0.000      -1       2 
      12      0.000      -1       2 
      13      0.000      -1       2 
      14      0.000      -1       2 
      15      0.000      -1       2 
      16      0.000      -1       2 
      17      0.000      -1       2 
      18      0.000      -1       2 

Atoms 

     1      1      1 -0.34750000    1.000  1.00000  0.00000
     2      1      2 0.47510000   -0.354  1.00000  0.00000
     3      1      3 -0.28160000   -1.044  1.00000  1.16103
     4      1      4 -0.00940000   -0.331  1.00000  2.30371
     5      1      5 -0.28440000    1.010  1.00000  2.35123
     6      1      6 0.45040000    1.659  1.00000  1.17831
     7      1      7 -0.10620000    1.765  1.00164  3.67305
     8      1      8 -0.23290000    0.941  1.00331  4.96926
     9      1      9 -0.10760000   -2.559  0.99849  1.36677
    10      1     10 -0.24700000   -3.572  0.99664  0.21743
    11      1     11 -0.16580000    1.828  0.99838 -1.27906
    12      1     12 -1.13080000    2.929  0.99861  1.19145
    13      1     13 -1.13440000   -0.956  1.00141 -1.11583
    14      1     14 0.13000000   -0.894  1.00124  3.24954
    15      1     15 0.07550000    2.420  0.09710  3.69649
    16      1     16 0.07550000    2.420  1.90614  3.69420
    17      1     17 0.08130000    1.613  1.00572  5.85944
    18      1     18 0.08130000    0.301  1.91113  5.04982
    19      1     19 0.08130000    0.302  0.09506  5.05279
    20      1     20 0.08390000   -2.795  0.10038  1.99081
    21      1     21 0.08390000   -2.797  1.89688  1.98964
    22      1     22 0.08110000   -4.613  0.99709  0.61847
    23      1     23 0.08110000   -3.489  1.91211 -0.41175
    24      1     24 0.08110000   -3.489  0.07931 -0.40906
    25      1     25 0.07250000    1.271  0.99717 -2.23580
    26      1     26 0.07250000    2.473  1.90592 -1.31965
    27      1     27 0.07250000    2.473  0.09076 -1.31735
    28      1     28 0.49310000    3.493  0.99744  0.30840
    29      1     29 0.49310000    3.469  0.99970  2.09000
    30      1     30 0.49120000   -1.993  1.00043 -1.20793
    31      1     31 0.49120000   -0.463  1.00257 -2.03674

Bonds 

     1      1      2      1
     2      2      3      2
     3      3      4      3
     4      4      5      4
     5      5      6      1
     6      6      7      5
     7      7      8      7
     8      8      9      3
     9      9     10      9
    10     10     11      1
    11     11     12      6
    12     12     13      2
    13     13     14      4
    14     14     15      7
    15     15     16      7
    16     16     17      8
    17     17     18      8
    18     18     19      8
    19     19     20      9
    20     20     21      9
    21     21     22     10
    22     22     23     10
    23     23     24     10
    24     24     25     11
    25     25     26     11
    26     26     27     11
    27     27     28     12
    28     28     29     12
    29     29     30     13
    30     30     31     13
    31     31      6      5

Angles 

     1      1      1      2      3
     2      2      2      3      4
     3      3      3      4      5
     4      4      2      1      6
     5      5      4      5      7
     6      6      5      7      8
     7      7      2      3      9
     8      8      3      9     10
     9      9      2      1     11
    10     10      1      6     12
    11     11      1      2     13
    12     12      3      4     14
    13     13      5      7     15
    14     14      5      7     16
    15     15      7      8     17
    16     16      7      8     18
    17     17      7      8     19
    18     18      3      9     20
    19     19      3      9     21
    20     20      9     10     22
    21     21      9     10     23
    22     22      9     10     24
    23     23      1     11     25
    24     24      1     11     26
    25     25      1     11     27
    26     26      6     12     28
    27     27      6     12     29
    28     28      2     13     30
    29     29      2     13     31
    30     30     18      8     19
    31     31     28     12     29
    32     32     25     11     27
    33     33      4      5      6
    34     34      8      7     15
    35     35     22     10     23
    36     36      6      1     11
    37     37     20      9     21
    38     38     17      8     18
    39     39      5      6     12
    40     40      4      3      9
    41     41     15      7     16
    42     42      5      4     14
    43     43     22     10     24
    44     44      6      5      7
    45     45     17      8     19
    46     46      3      2     13
    47     47     10      9     21
    48     48     26     11     27
    49     49     25     11     26
    50     50     23     10     24
    51     51      1      6      5
    52     52     30     13     31
    53     53      8      7     16
    54     54     10      9     20

Dihedrals

     1      1      4      3      2      1 
     2      2      5      4      3      2 
     3      3      6      1      2      3 
     4      4      8      7      5      4 
     5      5     10      9      3      2 
     6      6     17      8      7      5 
     7      7     22     10      9      3 
     8      8     25     11      1      2 
     9      9     28     12      6      1 
    10     10     30     13      2      1 
    11     11     27     11      1      2 
    12     12     16      7      5      4 
    13     13     10      9      3      4 
    14     14     20      9      3      2 
    15     15     14      4      3      2 
    16     16      6      5      4      3 
    17     17     13      2      3      9 
    18     18     24     10      9     21 
    19     19     13      2      1      6 
    20     20     23     10      9      3 
    21     21      5      6      1      2 
    22     22     11      1      2      3 
    23     23     19      8      7     15 
    24     24     22     10      9     21 
    25     25     16      7      5      6 
    26     26     23     10      9     21 
    27     27     15      7      5      4 
    28     28     27     11      1      6 
    29     29     21      9      3      4 
    30     30     17      8      7     16 
    31     31     29     12      6      5 
    32     32      9      3      2      1 
    33     33     12      6      1     11 
    34     34      8      7      5      6 
    35     35     18      8      7      5 
    36     36     12      6      5      4 
    37     37     31     13      2      1 
    38     38      7      5      4      3 
    39     39     24     10      9      3 
    40     40     13      2      1     11 
    41     41     11      1      6      5 
    42     42     25     11      1      6 
    43     43     12      6      5      7 
    44     44     14      4      5      7 
    45     45     19      8      7     16 
    46     46     14      4      3      9 
    47     47     13      2      3      4 
    48     48     29     12      6      1 
    49     49     18      8      7     15 
    50     50     30     13      2      3 
    51     51     19      8      7      5 
    52     52     17      8      7     15 
    53     53     26     11      1      6 
    54     54     26     11      1      2 
    55     55     15      7      5      6 
    56     56     28     12      6      5 
    57     57     23     10      9     20 
    58     58     12      6      1      2 
    59     59      4      5      6      1 
    60     60     18      8      7     16 
    61     61     20      9      3      4 
    62     62     21      9      3      2 
    63     63      7      5      6      1 
    64     64     24     10      9     20 
    65     65     31     13      2      3 
    66     66      9      3      4      5 
    67     67     22     10      9     20 
    68     68     14      4      5      6 

Impropers

     1      1      5      4      6      7 
     2      2      3      9      2      4 
     3      3      1      2     11      6 
     4      4      6      1     12      5 
     5      5      2      1      3     13 
     6      6      4      3      5     14 
     7      7      7      5     15      8 
     8      8      7      8      5     16 
     9      9      8     17     18      7 
    10     10      8     17     19      7 
    11     11      9     10      3     20 
    12     12      9     10      3     21 
    13     13     10      9     22     23 
    14     14     10      9     22     24 
    15     15     11      1     26     25 
    16     16     11      1     25     27 
    17     17     12     28     29      6 
    18     18     13      2     30     31 

