HEADER,  h_anhydride_r.mol2  read w/ mol2SYBYL2lmp > atom_typing v1.4 / 2 May 2023 w/PCFF-IFF atom-types > all2lmp: v1.7 / 2 May 2023  Class: 2 > bond_react_merge: v1.7 / 2 May 2023 datafile (filetag: data2)

42 atoms
48 bonds
80 angles
128 dihedrals
26 impropers

11 atom types
12 bond types
20 angle types
26 dihedral types
11 improper types

-5.737685500 6.256454500 xlo xhi
-6.011173095 6.357856905 ylo yhi
-2.753318262 1.997081738 zlo zhi


Masses

 1   12.01115  #  c5   
 2   12.01115  #  cp   
 3   1.00800   #  hn2  
 4   1.00797   #  hpan 
 5   1.00797   #  hw   
 6   14.00670  #  nn   
 7   15.99940  #  o*   
 8   15.99940  #  o=   
 9   15.99940  #  o_1  
10   15.99940  #  oc   
11   15.99940  #  op   

Pair Coeffs  # lj/class2/coul/long

 1     0.06400000      4.01000000    #  c5   
 2     0.06400000      4.01000000    #  cp   
 3     0.01300000      1.65000000    #  hn2  
 4     0.02000000      2.30000000    #  hpan 
 5     0.01300000      1.09800000    #  hw   
 6     0.06500000      4.07000000    #  nn   
 7     0.26000000      3.61000000    #  o*   
 8     0.28000000      3.25000000    #  o=   
 9     0.26700000      3.30000000    #  o_1  
10     0.24000000      3.53500000    #  oc   
11     0.10900000      3.53500000    #  op   

Bond Coeffs  # class2

 1     0.00000000      0.00000000      0.00000000      0.00000000    #  c5          o=   
 2     1.39120000     447.04380000   -784.53460000    886.16710000   #  c5          nn   
 3     1.35970000     547.51690000   -834.06650000    544.30900000   #  c5          op   
 4     1.33000000     297.48520000     0.00000000      0.00000000    #  c5         o_1   
 5     1.41700000     470.83610000   -627.61790000   1327.63450000   #  c5          cp   
 6     1.09820000     372.82510000   -803.45260000    894.31730000   #  cp        hpan   
 7     1.39120000     447.04380000   -784.53460000    886.16710000   #  cp          nn   
 8     1.41700000     470.83610000   -627.61790000   1327.63450000   #  cp          cp   
 9     1.33000000     297.48520000     0.00000000      0.00000000    #  cp         o_1   
10     1.37680000     428.87980000   -738.23510000   1114.96550000   #  cp          oc   
11     1.02600000     457.45920000     0.00000000      0.00000000    #  hn2         nn   
12     0.97000000     563.28000000   -1428.22000000  1902.12000000   #  hw          o*   

Angle Coeffs  # class2

 1    118.90000000    61.02260000     -34.99310000     0.00000000    #  c5         cp         cp   
 2    120.00000000    50.00000000      0.00000000      0.00000000    #  c5         nn         c5   
 3    120.00000000    50.00000000      0.00000000      0.00000000    #  c5         nn         cp   
 4    103.43000000    112.44970000    -25.73260000     0.00000000    #  c5         op         c5   
 5    121.45840000    61.06470000     -21.61720000     0.00000000    #  cp         c5         nn   
 6    120.00000000    60.00000000      0.00000000      0.00000000    #  cp         c5         o=   
 7    120.00000000    60.00000000      0.00000000      0.00000000    #  cp         c5        o_1   
 8    104.17000000    101.32060000    -17.30720000     0.00000000    #  cp         c5         op   
 9    118.90000000    61.02260000     -34.99310000     0.00000000    #  cp         cp         cp   
10    117.94000000    35.15580000     -12.46820000     0.00000000    #  cp         cp       hpan   
11    121.45840000    61.06470000     -21.61720000     0.00000000    #  cp         cp         nn   
12    120.00000000    60.00000000      0.00000000      0.00000000    #  cp         cp        o_1   
13    123.42000000    73.67810000     -21.67870000     0.00000000    #  cp         cp         oc   
14    122.00000000    35.00000000      0.00000000      0.00000000    #  cp         nn        hn2   
15    109.50000000    60.00000000      0.00000000      0.00000000    #  cp         oc         cp   
16    122.00000000    35.00000000      0.00000000      0.00000000    #  hn2        nn        hn2   
17    103.70000000    49.84000000     -11.60000000    -8.00000000    #  hw         o*         hw   
18    120.00000000    60.00000000      0.00000000      0.00000000    #  nn         c5        o_1   
19    120.00000000    60.00000000      0.00000000      0.00000000    #  o=         c5         op   
20    120.00000000    60.00000000      0.00000000      0.00000000    #  o_1        c5         op   

Dihedral Coeffs  # class2

 1     8.36670000      0.00000000      1.19320000      0.00000000      0.00000000      0.00000000    #  c5         cp        cp         c5   
 2     8.36670000      0.00000000      1.19320000      0.00000000      0.00000000      0.00000000    #  c5         cp        cp         cp   
 3     0.00000000      0.00000000      3.96610000      0.00000000      0.00000000      0.00000000    #  c5         cp        cp       hpan   
 4     0.00000000      0.00000000      2.25000000      0.00000000      0.00000000      0.00000000    #  cp         c5        nn         c5   
 5     0.00000000      0.00000000      2.25000000      0.00000000      0.00000000      0.00000000    #  cp         c5        nn         cp   
 6     0.00000000      0.00000000     27.54020000      0.00000000      0.00000000      0.00000000    #  cp         c5        op         c5   
 7     0.00000000      0.00000000      5.38260000      0.00000000      0.00000000      0.00000000    #  cp         cp        c5         nn   
 8     0.00000000      0.00000000      3.00000000      0.00000000      0.00000000      0.00000000    #  cp         cp        c5         o=   
 9     0.00000000      0.00000000      3.00000000      0.00000000      0.00000000      0.00000000    #  cp         cp        c5        o_1   
10     0.00000000      0.00000000     10.69230000      0.00000000      0.00000000      0.00000000    #  cp         cp        c5         op   
11     8.36670000      0.00000000      1.19320000      0.00000000      0.00000000      0.00000000    #  cp         cp        cp         cp   
12     0.00000000      0.00000000      3.96610000      0.00000000      0.00000000      0.00000000    #  cp         cp        cp       hpan   
13     0.00000000      0.00000000      5.38260000      0.00000000      0.00000000      0.00000000    #  cp         cp        cp         nn   
14     0.00000000      0.00000000      3.00000000      0.00000000      0.00000000      0.00000000    #  cp         cp        cp        o_1   
15     0.00000000      0.00000000      4.84980000      0.00000000      0.00000000      0.00000000    #  cp         cp        cp         oc   
16     0.00000000      0.00000000      2.25000000      0.00000000      0.00000000      0.00000000    #  cp         cp        nn         c5   
17     0.00000000      0.00000000      2.25000000      0.00000000      0.00000000      0.00000000    #  cp         cp        nn        hn2   
18     0.00000000      0.00000000      1.80000000      0.00000000      0.00000000      0.00000000    #  cp         cp        oc         cp   
19     0.00000000      0.00000000      1.87690000      0.00000000      0.00000000      0.00000000    #  hpan       cp        cp       hpan   
20     0.00000000      0.00000000      1.33310000      0.00000000      0.00000000      0.00000000    #  hpan       cp        cp         nn   
21     0.00000000      0.00000000      3.00000000      0.00000000      0.00000000      0.00000000    #  hpan       cp        cp        o_1   
22     0.00000000      0.00000000      1.72340000      0.00000000      0.00000000      0.00000000    #  hpan       cp        cp         oc   
23     0.00000000      0.00000000      1.80000000      0.00000000      0.00000000      0.00000000    #  o=         c5        op         c5   
24     0.00000000      0.00000000      2.25000000      0.00000000      0.00000000      0.00000000    #  o_1        c5        nn         c5   
25     0.00000000      0.00000000      2.25000000      0.00000000      0.00000000      0.00000000    #  o_1        c5        nn         cp   
26     0.00000000      0.00000000      1.80000000      0.00000000      0.00000000      0.00000000    #  o_1        c5        op         c5   

Improper Coeffs  # class2

 1     7.17940000      0.00000000    #  c5         cp        cp        cp      nb==3   
 2     0.10000000      0.00000000    #  c5         nn        c5        cp      nb==3   
 3    10.00000000      0.00000000    #  cp         c5        nn       o_1      nb==3   
 4    10.00000000      0.00000000    #  cp         c5        o=        op      nb==3   
 5    10.00000000      0.00000000    #  cp         c5       o_1        op      nb==3   
 6     7.17940000      0.00000000    #  cp         cp        cp        cp      nb==3   
 7     4.89120000      0.00000000    #  cp         cp        cp       hpan     nb==3   
 8    10.78550000      0.00000000    #  cp         cp        cp        nn      nb==3   
 9    10.00000000      0.00000000    #  cp         cp        cp       o_1      nb==3   
10    13.04210000      0.00000000    #  cp         cp        cp        oc      nb==3   
11     0.10000000      0.00000000    #  cp         nn       hn2       hn2      nb==3   

BondBond Coeffs  # class2

 1    68.28560000      1.41700000      1.41700000    #  c5         cp         cp   
 2     0.00000000      1.39120000      1.39120000    #  c5         nn         c5   
 3     0.00000000      1.39120000      1.39120000    #  c5         nn         cp   
 4    109.90800000     1.35970000      1.35970000    #  c5         op         c5   
 5    46.95130000      1.41700000      1.39120000    #  cp         c5         nn   
 6     0.00000000      1.41700000      0.00000000    #  cp         c5         o=   
 7     0.00000000      1.41700000      1.33000000    #  cp         c5        o_1   
 8    80.02900000      1.41700000      1.35970000    #  cp         c5         op   
 9    68.28560000      1.41700000      1.41700000    #  cp         cp         cp   
10     1.07950000      1.41700000      1.09820000    #  cp         cp       hpan   
11    46.95130000      1.41700000      1.39120000    #  cp         cp         nn   
12     0.00000000      1.41700000      1.33000000    #  cp         cp        o_1   
13    48.47540000      1.41700000      1.37680000    #  cp         cp         oc   
14     0.00000000      1.39120000      1.02600000    #  cp         nn        hn2   
15     0.00000000      1.37680000      1.37680000    #  cp         oc         cp   
16     0.00000000      1.02600000      1.02600000    #  hn2        nn        hn2   
17    -9.50000000      0.97000000      0.97000000    #  hw         o*         hw   
18     0.00000000      1.39120000      1.33000000    #  nn         c5        o_1   
19     0.00000000      0.00000000      1.35970000    #  o=         c5         op   
20     0.00000000      1.33000000      1.35970000    #  o_1        c5         op   

BondAngle Coeffs  # class2

 1    28.87080000     28.87080000      1.41700000      1.41700000    #  c5         cp         cp   
 2     0.00000000      0.00000000      1.39120000      1.39120000    #  c5         nn         c5   
 3     0.00000000      0.00000000      1.39120000      1.39120000    #  c5         nn         cp   
 4    222.41250000    222.41250000     1.35970000      1.35970000    #  c5         op         c5   
 5    39.40400000     73.65480000      1.41700000      1.39120000    #  cp         c5         nn   
 6     0.00000000      0.00000000      1.41700000      0.00000000    #  cp         c5         o=   
 7     0.00000000      0.00000000      1.41700000      1.33000000    #  cp         c5        o_1   
 8    97.67700000     187.82820000     1.41700000      1.35970000    #  cp         c5         op   
 9    28.87080000     28.87080000      1.41700000      1.41700000    #  cp         cp         cp   
10    20.00330000     24.21830000      1.41700000      1.09820000    #  cp         cp       hpan   
11    39.40400000     73.65480000      1.41700000      1.39120000    #  cp         cp         nn   
12     0.00000000      0.00000000      1.41700000      1.33000000    #  cp         cp        o_1   
13    58.47900000     107.68060000     1.41700000      1.37680000    #  cp         cp         oc   
14     0.00000000      0.00000000      1.39120000      1.02600000    #  cp         nn        hn2   
15     0.00000000      0.00000000      1.37680000      1.37680000    #  cp         oc         cp   
16     0.00000000      0.00000000      1.02600000      1.02600000    #  hn2        nn        hn2   
17    22.35000000     22.35000000      0.97000000      0.97000000    #  hw         o*         hw   
18     0.00000000      0.00000000      1.39120000      1.33000000    #  nn         c5        o_1   
19     0.00000000      0.00000000      0.00000000      1.35970000    #  o=         c5         op   
20     0.00000000      0.00000000      1.33000000      1.35970000    #  o_1        c5         op   

AngleAngleTorsion Coeffs  # class2

 1     0.00000000     118.90000000    118.90000000   #  c5         cp        cp         c5   
 2     0.00000000     118.90000000    118.90000000   #  c5         cp        cp         cp   
 3    -4.81410000     118.90000000    117.94000000   #  c5         cp        cp       hpan   
 4     0.00000000     121.45840000    120.00000000   #  cp         c5        nn         c5   
 5     0.00000000     121.45840000    120.00000000   #  cp         c5        nn         cp   
 6     0.00000000     104.17000000    103.43000000   #  cp         c5        op         c5   
 7     0.00000000     118.90000000    121.45840000   #  cp         cp        c5         nn   
 8     0.00000000     118.90000000    120.00000000   #  cp         cp        c5         o=   
 9     0.00000000     118.90000000    120.00000000   #  cp         cp        c5        o_1   
10     0.00000000     118.90000000    104.17000000   #  cp         cp        c5         op   
11     0.00000000     118.90000000    118.90000000   #  cp         cp        cp         cp   
12    -4.81410000     118.90000000    117.94000000   #  cp         cp        cp       hpan   
13     0.00000000     118.90000000    121.45840000   #  cp         cp        cp         nn   
14     0.00000000     118.90000000    120.00000000   #  cp         cp        cp        o_1   
15    -21.02470000    118.90000000    123.42000000   #  cp         cp        cp         oc   
16     0.00000000     121.45840000    120.00000000   #  cp         cp        nn         c5   
17     0.00000000     121.45840000    122.00000000   #  cp         cp        nn        hn2   
18     0.00000000     123.42000000    109.50000000   #  cp         cp        oc         cp   
19     0.35980000     117.94000000    117.94000000   #  hpan       cp        cp       hpan   
20     0.00000000     117.94000000    121.45840000   #  hpan       cp        cp         nn   
21     0.00000000     117.94000000    120.00000000   #  hpan       cp        cp        o_1   
22     4.22960000     117.94000000    123.42000000   #  hpan       cp        cp         oc   
23     0.00000000     120.00000000    103.43000000   #  o=         c5        op         c5   
24     0.00000000     120.00000000    120.00000000   #  o_1        c5        nn         c5   
25     0.00000000     120.00000000    120.00000000   #  o_1        c5        nn         cp   
26     0.00000000     120.00000000    103.43000000   #  o_1        c5        op         c5   

EndBondTorsion Coeffs  # class2

 1    -0.11850000      6.32040000      0.00000000     -0.11850000      6.32040000      0.00000000      1.41700000      1.41700000    #  c5         cp        cp         c5   
 2    -0.11850000      6.32040000      0.00000000     -0.11850000      6.32040000      0.00000000      1.41700000      1.41700000    #  c5         cp        cp         cp   
 3     0.00000000     -6.89580000      0.00000000      0.00000000     -0.46690000      0.00000000      1.41700000      1.09820000    #  c5         cp        cp       hpan   
 4     0.00000000      0.00000000      0.00000000      0.00000000      0.00000000      0.00000000      1.41700000      1.39120000    #  cp         c5        nn         c5   
 5     0.00000000      0.00000000      0.00000000      0.00000000      0.00000000      0.00000000      1.41700000      1.39120000    #  cp         c5        nn         cp   
 6     0.00000000     -10.40960000     0.00000000      0.00000000     -22.45670000     0.00000000      1.41700000      1.35970000    #  cp         c5        op         c5   
 7     0.00000000     -6.54040000      0.00000000      0.00000000     -7.34770000      0.00000000      1.41700000      1.39120000    #  cp         cp        c5         nn   
 8     0.00000000      0.00000000      0.00000000      0.00000000      0.00000000      0.00000000      1.41700000      0.00000000    #  cp         cp        c5         o=   
 9     0.00000000      0.00000000      0.00000000      0.00000000      0.00000000      0.00000000      1.41700000      1.33000000    #  cp         cp        c5        o_1   
10     0.00000000     -30.54140000     0.00000000      0.00000000     -19.32850000     0.00000000      1.41700000      1.35970000    #  cp         cp        c5         op   
11    -0.11850000      6.32040000      0.00000000     -0.11850000      6.32040000      0.00000000      1.41700000      1.41700000    #  cp         cp        cp         cp   
12     0.00000000     -6.89580000      0.00000000      0.00000000     -0.46690000      0.00000000      1.41700000      1.09820000    #  cp         cp        cp       hpan   
13     0.00000000     -6.54040000      0.00000000      0.00000000     -7.34770000      0.00000000      1.41700000      1.39120000    #  cp         cp        cp         nn   
14     0.00000000      0.00000000      0.00000000      0.00000000      0.00000000      0.00000000      1.41700000      1.33000000    #  cp         cp        cp        o_1   
15     0.00000000      0.26550000      0.00000000      0.00000000      4.89050000      0.00000000      1.41700000      1.37680000    #  cp         cp        cp         oc   
16     0.00000000      0.00000000      0.00000000      0.00000000      0.00000000      0.00000000      1.41700000      1.39120000    #  cp         cp        nn         c5   
17     0.00000000      0.00000000      0.00000000      0.00000000      0.00000000      0.00000000      1.41700000      1.02600000    #  cp         cp        nn        hn2   
18     0.00000000      0.00000000      0.00000000      0.00000000      0.00000000      0.00000000      1.41700000      1.37680000    #  cp         cp        oc         cp   
19     0.00000000     -0.68900000      0.00000000      0.00000000     -0.68900000      0.00000000      1.09820000      1.09820000    #  hpan       cp        cp       hpan   
20     0.00000000     -2.64820000      0.00000000      0.00000000     -1.64020000      0.00000000      1.09820000      1.39120000    #  hpan       cp        cp         nn   
21     0.00000000      0.00000000      0.00000000      0.00000000      0.00000000      0.00000000      1.09820000      1.33000000    #  hpan       cp        cp        o_1   
22     0.00000000     -1.58670000      0.00000000      0.00000000      4.26410000      0.00000000      1.09820000      1.37680000    #  hpan       cp        cp         oc   
23     0.00000000      0.00000000      0.00000000      0.00000000      0.00000000      0.00000000      0.00000000      1.35970000    #  o=         c5        op         c5   
24     0.00000000      0.00000000      0.00000000      0.00000000      0.00000000      0.00000000      1.33000000      1.39120000    #  o_1        c5        nn         c5   
25     0.00000000      0.00000000      0.00000000      0.00000000      0.00000000      0.00000000      1.33000000      1.39120000    #  o_1        c5        nn         cp   
26     0.00000000      0.00000000      0.00000000      0.00000000      0.00000000      0.00000000      1.33000000      1.35970000    #  o_1        c5        op         c5   

MiddleBondTorsion Coeffs  # class2

 1    27.59890000     -2.31200000      0.00000000      1.41700000    #  c5         cp        cp         c5   
 2    27.59890000     -2.31200000      0.00000000      1.41700000    #  c5         cp        cp         cp   
 3     0.00000000     -1.15210000      0.00000000      1.41700000    #  c5         cp        cp       hpan   
 4     0.00000000      0.00000000      0.00000000      1.39120000    #  cp         c5        nn         c5   
 5     0.00000000      0.00000000      0.00000000      1.39120000    #  cp         c5        nn         cp   
 6     0.00000000     42.29660000      0.00000000      1.35970000    #  cp         c5        op         c5   
 7     0.00000000     -0.56930000      0.00000000      1.41700000    #  cp         cp        c5         nn   
 8     0.00000000      0.00000000      0.00000000      1.41700000    #  cp         cp        c5         o=   
 9     0.00000000      0.00000000      0.00000000      1.41700000    #  cp         cp        c5        o_1   
10     0.00000000     26.42720000      0.00000000      1.41700000    #  cp         cp        c5         op   
11    27.59890000     -2.31200000      0.00000000      1.41700000    #  cp         cp        cp         cp   
12     0.00000000     -1.15210000      0.00000000      1.41700000    #  cp         cp        cp       hpan   
13     0.00000000     -0.56930000      0.00000000      1.41700000    #  cp         cp        cp         nn   
14     0.00000000      0.00000000      0.00000000      1.41700000    #  cp         cp        cp        o_1   
15     0.00000000      4.82550000      0.00000000      1.41700000    #  cp         cp        cp         oc   
16     0.00000000      0.00000000      0.00000000      1.39120000    #  cp         cp        nn         c5   
17     0.00000000      0.00000000      0.00000000      1.39120000    #  cp         cp        nn        hn2   
18     0.00000000      0.00000000      0.00000000      1.37680000    #  cp         cp        oc         cp   
19     0.00000000      4.82280000      0.00000000      1.41700000    #  hpan       cp        cp       hpan   
20     0.00000000      2.28830000      0.00000000      1.41700000    #  hpan       cp        cp         nn   
21     0.00000000      0.00000000      0.00000000      1.41700000    #  hpan       cp        cp        o_1   
22     0.00000000      5.54320000      0.00000000      1.41700000    #  hpan       cp        cp         oc   
23     0.00000000      0.00000000      0.00000000      1.35970000    #  o=         c5        op         c5   
24     0.00000000      0.00000000      0.00000000      1.39120000    #  o_1        c5        nn         c5   
25     0.00000000      0.00000000      0.00000000      1.39120000    #  o_1        c5        nn         cp   
26     0.00000000      0.00000000      0.00000000      1.35970000    #  o_1        c5        op         c5   

BondBond13 Coeffs  # class2

 1    53.00000000      1.41700000      1.41700000    #  c5         cp        cp         c5   
 2    53.00000000      1.41700000      1.41700000    #  c5         cp        cp         cp   
 3    -6.27410000      1.41700000      1.09820000    #  c5         cp        cp       hpan   
 4     0.00000000      1.41700000      1.39120000    #  cp         c5        nn         c5   
 5     0.00000000      1.41700000      1.39120000    #  cp         c5        nn         cp   
 6    -73.84100000     1.41700000      1.35970000    #  cp         c5        op         c5   
 7    -9.79990000      1.41700000      1.39120000    #  cp         cp        c5         nn   
 8     0.00000000      1.41700000      0.00000000    #  cp         cp        c5         o=   
 9     0.00000000      1.41700000      1.33000000    #  cp         cp        c5        o_1   
10    -73.84100000     1.41700000      1.35970000    #  cp         cp        c5         op   
11    53.00000000      1.41700000      1.41700000    #  cp         cp        cp         cp   
12    -6.27410000      1.41700000      1.09820000    #  cp         cp        cp       hpan   
13    -9.79990000      1.41700000      1.39120000    #  cp         cp        cp         nn   
14     0.00000000      1.41700000      1.33000000    #  cp         cp        cp        o_1   
15    -2.24360000      1.41700000      1.37680000    #  cp         cp        cp         oc   
16     0.00000000      1.41700000      1.39120000    #  cp         cp        nn         c5   
17     0.00000000      1.41700000      1.02600000    #  cp         cp        nn        hn2   
18     0.00000000      1.41700000      1.37680000    #  cp         cp        oc         cp   
19    -1.70770000      1.09820000      1.09820000    #  hpan       cp        cp       hpan   
20    -1.07460000      1.09820000      1.39120000    #  hpan       cp        cp         nn   
21     0.00000000      1.09820000      1.33000000    #  hpan       cp        cp        o_1   
22     2.05170000      1.09820000      1.37680000    #  hpan       cp        cp         oc   
23     0.00000000      0.00000000      1.35970000    #  o=         c5        op         c5   
24     0.00000000      1.33000000      1.39120000    #  o_1        c5        nn         c5   
25     0.00000000      1.33000000      1.39120000    #  o_1        c5        nn         cp   
26     0.00000000      1.33000000      1.35970000    #  o_1        c5        op         c5   

AngleTorsion Coeffs  # class2

 1     1.97670000      1.02390000      0.00000000      1.97670000      1.02390000      0.00000000     118.90000000    118.90000000   #  c5         cp        cp         c5   
 2     1.97670000      1.02390000      0.00000000      1.97670000      1.02390000      0.00000000     118.90000000    118.90000000   #  c5         cp        cp         cp   
 3     0.00000000      2.50140000      0.00000000      0.00000000      2.71470000      0.00000000     118.90000000    117.94000000   #  c5         cp        cp       hpan   
 4     0.00000000      0.00000000      0.00000000      0.00000000      0.00000000      0.00000000     121.45840000    120.00000000   #  cp         c5        nn         c5   
 5     0.00000000      0.00000000      0.00000000      0.00000000      0.00000000      0.00000000     121.45840000    120.00000000   #  cp         c5        nn         cp   
 6     0.00000000     35.31580000      0.00000000      0.00000000     38.14160000      0.00000000     104.17000000    103.43000000   #  cp         c5        op         c5   
 7     0.00000000      9.09010000      0.00000000      0.00000000     -6.08820000      0.00000000     118.90000000    121.45840000   #  cp         cp        c5         nn   
 8     0.00000000      0.00000000      0.00000000      0.00000000      0.00000000      0.00000000     118.90000000    120.00000000   #  cp         cp        c5         o=   
 9     0.00000000      0.00000000      0.00000000      0.00000000      0.00000000      0.00000000     118.90000000    120.00000000   #  cp         cp        c5        o_1   
10     0.00000000     15.07200000      0.00000000      0.00000000     22.83700000      0.00000000     118.90000000    104.17000000   #  cp         cp        c5         op   
11     1.97670000      1.02390000      0.00000000      1.97670000      1.02390000      0.00000000     118.90000000    118.90000000   #  cp         cp        cp         cp   
12     0.00000000      2.50140000      0.00000000      0.00000000      2.71470000      0.00000000     118.90000000    117.94000000   #  cp         cp        cp       hpan   
13     0.00000000      9.09010000      0.00000000      0.00000000     -6.08820000      0.00000000     118.90000000    121.45840000   #  cp         cp        cp         nn   
14     0.00000000      0.00000000      0.00000000      0.00000000      0.00000000      0.00000000     118.90000000    120.00000000   #  cp         cp        cp        o_1   
15     0.00000000     10.01550000      0.00000000      0.00000000      1.74040000      0.00000000     118.90000000    123.42000000   #  cp         cp        cp         oc   
16     0.00000000      0.00000000      0.00000000      0.00000000      0.00000000      0.00000000     121.45840000    120.00000000   #  cp         cp        nn         c5   
17     0.00000000      0.00000000      0.00000000      0.00000000      0.00000000      0.00000000     121.45840000    122.00000000   #  cp         cp        nn        hn2   
18     0.00000000      0.00000000      0.00000000      0.00000000      0.00000000      0.00000000     123.42000000    109.50000000   #  cp         cp        oc         cp   
19     0.00000000      2.45010000      0.00000000      0.00000000      2.45010000      0.00000000     117.94000000    117.94000000   #  hpan       cp        cp       hpan   
20     0.00000000      2.98130000      0.00000000      0.00000000      0.27870000      0.00000000     117.94000000    121.45840000   #  hpan       cp        cp         nn   
21     0.00000000      0.00000000      0.00000000      0.00000000      0.00000000      0.00000000     117.94000000    120.00000000   #  hpan       cp        cp        o_1   
22     0.00000000      1.87290000      0.00000000      0.00000000      2.57060000      0.00000000     117.94000000    123.42000000   #  hpan       cp        cp         oc   
23     0.00000000      0.00000000      0.00000000      0.00000000      0.00000000      0.00000000     120.00000000    103.43000000   #  o=         c5        op         c5   
24     0.00000000      0.00000000      0.00000000      0.00000000      0.00000000      0.00000000     120.00000000    120.00000000   #  o_1        c5        nn         c5   
25     0.00000000      0.00000000      0.00000000      0.00000000      0.00000000      0.00000000     120.00000000    120.00000000   #  o_1        c5        nn         cp   
26     0.00000000      0.00000000      0.00000000      0.00000000      0.00000000      0.00000000     120.00000000    103.43000000   #  o_1        c5        op         c5   

AngleAngle Coeffs  # class2

 1     0.00000000      0.00000000      0.00000000     118.90000000    118.90000000    118.90000000   #  c5         cp        cp        cp      nb==3   