HEADER,  post1.mol2  read w/ mol2SYBYL2lmp > atom_typing v1.4 / 2 May 2023 w/PCFF-IFF atom-types > all2lmp: v1.7 / 2 May 2023  Class: 2

29 atoms
30 bonds
46 angles
68 dihedrals
15 impropers

8 atom types
8 bond types
11 angle types
16 dihedral types
7 improper types

-4.649693103 6.712806897 xlo xhi
-6.125506897 5.570693103 ylo yhi
-7.181403448 2.652796552 zlo zhi

Masses

1   12.01115000  #  c5   
2   12.01115000  #  cp   
3    1.00797000  #  hpan 
4    1.00797000  #  hw   
5   14.00670000  #  nn   
6   15.99940000  #  o*   
7   15.99940000  #  o_1  
8   15.99940000  #  oc   

Pair Coeffs  # lj/class2/coul/long

1         0.06400000      4.01000000 #  c5   
2         0.06400000      4.01000000 #  cp   
3         0.02000000      2.30000000 #  hpan 
4         0.01300000      1.09800000 #  hw   
5         0.06500000      4.07000000 #  nn   
6         0.26000000      3.61000000 #  o*   
7         0.26700000      3.30000000 #  o_1  
8         0.24000000      3.53500000 #  oc   

Bond Coeffs  # class2

1         1.41700000    470.83610000   -627.61790000   1327.63450000 #  c5          cp   
2         1.39120000    447.04380000   -784.53460000    886.16710000 #  c5          nn   
3         1.33000000    297.48520000      0.00000000      0.00000000 #  c5         o_1   
4         1.41700000    470.83610000   -627.61790000   1327.63450000 #  cp          cp   
5         1.09820000    372.82510000   -803.45260000    894.31730000 #  cp        hpan   
6         1.39120000    447.04380000   -784.53460000    886.16710000 #  cp          nn   
7         1.37680000    428.87980000   -738.23510000   1114.96550000 #  cp          oc   
8         0.97000000    563.28000000  -1428.22000000   1902.12000000 #  hw          o*   

Angle Coeffs  # class2

1       118.90000000     61.02260000    -34.99310000      0.00000000 #  c5         cp         cp   
2       120.00000000     50.00000000      0.00000000      0.00000000 #  c5         nn         c5   
3       120.00000000     50.00000000      0.00000000      0.00000000 #  c5         nn         cp   
4       121.45840000     61.06470000    -21.61720000      0.00000000 #  cp         c5         nn   
5       120.00000000     60.00000000      0.00000000      0.00000000 #  cp         c5        o_1   
6       118.90000000     61.02260000    -34.99310000      0.00000000 #  cp         cp         cp   
7       117.94000000     35.15580000    -12.46820000      0.00000000 #  cp         cp       hpan   
8       121.45840000     61.06470000    -21.61720000      0.00000000 #  cp         cp         nn   
9       123.42000000     73.67810000    -21.67870000      0.00000000 #  cp         cp         oc   
10      103.70000000     49.84000000    -11.60000000     -8.00000000 #  hw         o*         hw   
11      120.00000000     60.00000000      0.00000000      0.00000000 #  nn         c5        o_1   

Dihedral Coeffs  # class2

1         0.00000000      0.00000000      2.25000000      0.00000000      0.00000000      0.00000000 #  cp         c5        nn         cp   
2         0.00000000      0.00000000      5.38260000      0.00000000      0.00000000      0.00000000 #  cp         cp        c5         nn   
3         0.00000000      0.00000000      3.00000000      0.00000000      0.00000000      0.00000000 #  cp         cp        c5        o_1   
4         8.36670000      0.00000000      1.19320000      0.00000000      0.00000000      0.00000000 #  c5         cp        cp         c5   
5         8.36670000      0.00000000      1.19320000      0.00000000      0.00000000      0.00000000 #  cp         cp        cp         cp   
6         8.36670000      0.00000000      1.19320000      0.00000000      0.00000000      0.00000000 #  c5         cp        cp         cp   
7         0.00000000      0.00000000      1.87690000      0.00000000      0.00000000      0.00000000 #  hpan       cp        cp       hpan   
8         0.00000000      0.00000000      3.96610000      0.00000000      0.00000000      0.00000000 #  cp         cp        cp       hpan   
9         0.00000000      0.00000000      5.38260000      0.00000000      0.00000000      0.00000000 #  cp         cp        cp         nn   
10        0.00000000      0.00000000      1.33310000      0.00000000      0.00000000      0.00000000 #  hpan       cp        cp         nn   
11        0.00000000      0.00000000      1.72340000      0.00000000      0.00000000      0.00000000 #  hpan       cp        cp         oc   
12        0.00000000      0.00000000      4.84980000      0.00000000      0.00000000      0.00000000 #  cp         cp        cp         oc   
13        0.00000000      0.00000000      2.25000000      0.00000000      0.00000000      0.00000000 #  cp         c5        nn         c5   
14        0.00000000      0.00000000      2.25000000      0.00000000      0.00000000      0.00000000 #  o_1        c5        nn         cp   
15        0.00000000      0.00000000      2.25000000      0.00000000      0.00000000      0.00000000 #  o_1        c5        nn         c5   
16        0.00000000      0.00000000      2.25000000      0.00000000      0.00000000      0.00000000 #  cp         cp        nn         c5   

Improper Coeffs  # class2

1         7.17940000      0.00000000 #  c5         cp        cp        cp      nb==3   
2         0.10000000      0.00000000 #  c5         nn        c5        cp      nb==3   
3        10.00000000      0.00000000 #  cp         c5        nn       o_1      nb==3   
4         7.17940000      0.00000000 #  cp         cp        cp        cp      nb==3   
5         4.89120000      0.00000000 #  cp         cp        cp       hpan     nb==3   
6        10.78550000      0.00000000 #  cp         cp        cp        nn      nb==3   
7        13.04210000      0.00000000 #  cp         cp        cp        oc      nb==3   

BondBond Coeffs  # class2

1        68.28560000      1.41700000      1.41700000 #  c5         cp         cp   
2         0.00000000      1.39120000      1.39120000 #  c5         nn         c5   
3         0.00000000      1.39120000      1.39120000 #  c5         nn         cp   
4        46.95130000      1.41700000      1.39120000 #  cp         c5         nn   
5         0.00000000      1.41700000      1.33000000 #  cp         c5        o_1   
6        68.28560000      1.41700000      1.41700000 #  cp         cp         cp   
7         1.07950000      1.41700000      1.09820000 #  cp         cp       hpan   
8        46.95130000      1.41700000      1.39120000 #  cp         cp         nn   
9        48.47540000      1.41700000      1.37680000 #  cp         cp         oc   
10       -9.50000000      0.97000000      0.97000000 #  hw         o*         hw   
11        0.00000000      1.39120000      1.33000000 #  nn         c5        o_1   

BondAngle Coeffs  # class2

1        28.87080000     28.87080000      1.41700000      1.41700000 #  c5         cp         cp   
2         0.00000000      0.00000000      1.39120000      1.39120000 #  c5         nn         c5   
3         0.00000000      0.00000000      1.39120000      1.39120000 #  c5         nn         cp   
4        39.40400000     73.65480000      1.41700000      1.39120000 #  cp         c5         nn   
5         0.00000000      0.00000000      1.41700000      1.33000000 #  cp         c5        o_1   
6        28.87080000     28.87080000      1.41700000      1.41700000 #  cp         cp         cp   
7        20.00330000     24.21830000      1.41700000      1.09820000 #  cp         cp       hpan   
8        39.40400000     73.65480000      1.41700000      1.39120000 #  cp         cp         nn   
9        58.47900000    107.68060000      1.41700000      1.37680000 #  cp         cp         oc   
10       22.35000000     22.35000000      0.97000000      0.97000000 #  hw         o*         hw   
11        0.00000000      0.00000000      1.39120000      1.33000000 #  nn         c5        o_1   

AngleAngleTorsion Coeffs  # class2

1         0.00000000    121.45840000    120.00000000 #  cp         c5        nn         cp   
2         0.00000000    118.90000000    121.45840000 #  cp         cp        c5         nn   
3         0.00000000    118.90000000    120.00000000 #  cp         cp        c5        o_1   
4         0.00000000    118.90000000    118.90000000 #  c5         cp        cp         c5   
5         0.00000000    118.90000000    118.90000000 #  cp         cp        cp         cp   
6         0.00000000    118.90000000    118.90000000 #  c5         cp        cp         cp   
7         0.35980000    117.94000000    117.94000000 #  hpan       cp        cp       hpan   
8        -4.81410000    118.90000000    117.94000000 #  cp         cp        cp       hpan   
9         0.00000000    118.90000000    121.45840000 #  cp         cp        cp         nn   
10        0.00000000    117.94000000    121.45840000 #  hpan       cp        cp         nn   
11        4.22960000    117.94000000    123.42000000 #  hpan       cp        cp         oc   
12      -21.02470000    118.90000000    123.42000000 #  cp         cp        cp         oc   
13        0.00000000    121.45840000    120.00000000 #  cp         c5        nn         c5   
14        0.00000000    120.00000000    120.00000000 #  o_1        c5        nn         cp   
15        0.00000000    120.00000000    120.00000000 #  o_1        c5        nn         c5   
16        0.00000000    121.45840000    120.00000000 #  cp         cp        nn         c5   

EndBondTorsion Coeffs  # class2

1         0.00000000      0.00000000      0.00000000      0.00000000      0.00000000      0.00000000      1.41700000      1.39120000 #  cp         c5        nn         cp   
2         0.00000000     -6.54040000      0.00000000      0.00000000     -7.34770000      0.00000000      1.41700000      1.39120000 #  cp         cp        c5         nn   
3         0.00000000      0.00000000      0.00000000      0.00000000      0.00000000      0.00000000      1.41700000      1.33000000 #  cp         cp        c5        o_1   
4        -0.11850000      6.32040000      0.00000000     -0.11850000      6.32040000      0.00000000      1.41700000      1.41700000 #  c5         cp        cp         c5   
5        -0.11850000      6.32040000      0.00000000     -0.11850000      6.32040000      0.00000000      1.41700000      1.41700000 #  cp         cp        cp         cp   
6        -0.11850000      6.32040000      0.00000000     -0.11850000      6.32040000      0.00000000      1.41700000      1.41700000 #  c5         cp        cp         cp   
7         0.00000000     -0.68900000      0.00000000      0.00000000     -0.68900000      0.00000000      1.09820000      1.09820000 #  hpan       cp        cp       hpan   
8         0.00000000     -6.89580000      0.00000000      0.00000000     -0.46690000      0.00000000      1.41700000      1.09820000 #  cp         cp        cp       hpan   
9         0.00000000     -6.54040000      0.00000000      0.00000000     -7.34770000      0.00000000      1.41700000      1.39120000 #  cp         cp        cp         nn   
10        0.00000000     -2.64820000      0.00000000      0.00000000     -1.64020000      0.00000000      1.09820000      1.39120000 #  hpan       cp        cp         nn   
11        0.00000000     -1.58670000      0.00000000      0.00000000      4.26410000      0.00000000      1.09820000      1.37680000 #  hpan       cp        cp         oc   
12        0.00000000      0.26550000      0.00000000      0.00000000      4.89050000      0.00000000      1.41700000      1.37680000 #  cp         cp        cp         oc   
13        0.00000000      0.00000000      0.00000000      0.00000000      0.00000000      0.00000000      1.41700000      1.39120000 #  cp         c5        nn         c5   
14        0.00000000      0.00000000      0.00000000      0.00000000      0.00000000      0.00000000      1.33000000      1.39120000 #  o_1        c5        nn         cp   
15        0.00000000      0.00000000      0.00000000      0.00000000      0.00000000      0.00000000      1.33000000      1.39120000 #  o_1        c5        nn         c5   
16        0.00000000      0.00000000      0.00000000      0.00000000      0.00000000      0.00000000      1.41700000      1.39120000 #  cp         cp        nn         c5   

MiddleBondTorsion Coeffs  # class2

1         0.00000000      0.00000000      0.00000000      1.39120000 #  cp         c5        nn         cp   
2         0.00000000     -0.56930000      0.00000000      1.41700000 #  cp         cp        c5         nn   
3         0.00000000      0.00000000      0.00000000      1.41700000 #  cp         cp        c5        o_1   
4        27.59890000     -2.31200000      0.00000000      1.41700000 #  c5         cp        cp         c5   
5        27.59890000     -2.31200000      0.00000000      1.41700000 #  cp         cp        cp         cp   
6        27.59890000     -2.31200000      0.00000000      1.41700000 #  c5         cp        cp         cp   
7         0.00000000      4.82280000      0.00000000      1.41700000 #  hpan       cp        cp       hpan   
8         0.00000000     -1.15210000      0.00000000      1.41700000 #  cp         cp        cp       hpan   
9         0.00000000     -0.56930000      0.00000000      1.41700000 #  cp         cp        cp         nn   
10        0.00000000      2.28830000      0.00000000      1.41700000 #  hpan       cp        cp         nn   
11        0.00000000      5.54320000      0.00000000      1.41700000 #  hpan       cp        cp         oc   
12        0.00000000      4.82550000      0.00000000      1.41700000 #  cp         cp        cp         oc   
13        0.00000000      0.00000000      0.00000000      1.39120000 #  cp         c5        nn         c5   
14        0.00000000      0.00000000      0.00000000      1.39120000 #  o_1        c5        nn         cp   
15        0.00000000      0.00000000      0.00000000      1.39120000 #  o_1        c5        nn         c5   
16        0.00000000      0.00000000      0.00000000      1.39120000 #  cp         cp        nn         c5   

BondBond13 Coeffs  # class2

1         0.00000000      1.41700000      1.39120000 #  cp         c5        nn         cp   
2        -9.79990000      1.41700000      1.39120000 #  cp         cp        c5         nn   
3         0.00000000      1.41700000      1.33000000 #  cp         cp        c5        o_1   
4        53.00000000      1.41700000      1.41700000 #  c5         cp        cp         c5   
5        53.00000000      1.41700000      1.41700000 #  cp         cp        cp         cp   
6        53.00000000      1.41700000      1.41700000 #  c5         cp        cp         cp   
7        -1.70770000      1.09820000      1.09820000 #  hpan       cp        cp       hpan   
8        -6.27410000      1.41700000      1.09820000 #  cp         cp        cp       hpan   
9        -9.79990000      1.41700000      1.39120000 #  cp         cp        cp         nn   
10       -1.07460000      1.09820000      1.39120000 #  hpan       cp        cp         nn   
11        2.05170000      1.09820000      1.37680000 #  hpan       cp        cp         oc   
12       -2.24360000      1.41700000      1.37680000 #  cp         cp        cp         oc   
13        0.00000000      1.41700000      1.39120000 #  cp         c5        nn         c5   
14        0.00000000      1.33000000      1.39120000 #  o_1        c5        nn         cp   
15        0.00000000      1.33000000      1.39120000 #  o_1        c5        nn         c5   
16        0.00000000      1.41700000      1.39120000 #  cp         cp        nn         c5   

AngleTorsion Coeffs  # class2

1         0.00000000      0.00000000      0.00000000      0.00000000      0.00000000      0.00000000    121.45840000    120.00000000 #  cp         c5        nn         cp   
2         0.00000000      9.09010000      0.00000000      0.00000000     -6.08820000      0.00000000    118.90000000    121.45840000 #  cp         cp        c5         nn   
3         0.00000000      0.00000000      0.00000000      0.00000000      0.00000000      0.00000000    118.90000000    120.00000000 #  cp         cp        c5        o_1   
4         1.97670000      1.02390000      0.00000000      1.97670000      1.02390000      0.00000000    118.90000000    118.90000000 #  c5         cp        cp         c5   
5         1.97670000      1.02390000      0.00000000      1.97670000      1.02390000      0.00000000    118.90000000    118.90000000 #  cp         cp        cp         cp   
6         1.97670000      1.02390000      0.00000000      1.97670000      1.02390000      0.00000000    118.90000000    118.90000000 #  c5         cp        cp         cp   
7         0.00000000      2.45010000      0.00000000      0.00000000      2.45010000      0.00000000    117.94000000    117.94000000 #  hpan       cp        cp       hpan   
8         0.00000000      2.50140000      0.00000000      0.00000000      2.71470000      0.00000000    118.90000000    117.94000000 #  cp         cp        cp       hpan   
9         0.00000000      9.09010000      0.00000000      0.00000000     -6.08820000      0.00000000    118.90000000    121.45840000 #  cp         cp        cp         nn   
10        0.00000000      2.98130000      0.00000000      0.00000000      0.27870000      0.00000000    117.94000000    121.45840000 #  hpan       cp        cp         nn   
11        0.00000000      1.87290000      0.00000000      0.00000000      2.57060000      0.00000000    117.94000000    123.42000000 #  hpan       cp        cp         oc   
12        0.00000000     10.01550000      0.00000000      0.00000000      1.74040000      0.00000000    118.90000000    123.42000000 #  cp         cp        cp         oc   
13        0.00000000      0.00000000      0.00000000      0.00000000      0.00000000      0.00000000    121.45840000    120.00000000 #  cp         c5        nn         c5   
14        0.00000000      0.00000000      0.00000000      0.00000000      0.00000000      0.00000000    120.00000000    120.00000000 #  o_1        c5        nn         cp   
15        0.00000000      0.00000000      0.00000000      0.00000000      0.00000000      0.00000000    120.00000000    120.00000000 #  o_1        c5        nn         c5   
16        0.00000000      0.00000000      0.00000000      0.00000000      0.00000000      0.00000000    121.45840000    120.00000000 #  cp         cp        nn         c5   

AngleAngle Coeffs  # class2

1         0.00000000      0.00000000      0.00000000    118.90000000    118.90000000    118.90000000 #  c5         cp        cp        cp      nb==3   
2         0.00000000      0.00000000      0.00000000    120.00000000    120.00000000    120.00000000 #  c5         nn        c5        cp      nb==3   
3         0.00000000      0.00000000      0.00000000    121.45840000    120.00000000    120.00000000 #  cp         c5        nn       o_1      nb==3   
4         0.00000000      0.00000000      0.00000000    118.90000000    118.90000000    118.90000000 #  cp         cp        cp        cp      nb==3   
5         0.00000000      0.00000000      0.00000000    118.90000000    117.94000000    117.94000000 #  cp         cp        cp       hpan     nb==3   
6         0.00000000      0.00000000      0.00000000    118.90000000    121.45840000    121.45840000 #  cp         cp        cp        nn      nb==3   
7         0.00000000      0.00000000      0.00000000    118.90000000    123.42000000    123.42000000 #  cp         cp        cp        oc      nb==3   

Atoms # full

 1  1  2   -0.126800   -3.072793103     3.106093103     1.088196552      0    0    0 #  cp/C
 2  1  2   -0.126800   -2.209693103     4.088593103     1.573396552      0    0    0 #  cp/C
 3  1  2    0.026500   -0.844093103     3.825593103     1.681596552      0    0    0 #  cp/C
 4  1  2   -0.126800   -0.341693103     2.580293103     1.304596552      0    0    0 #  cp/C
 5  1  2    0.082700   -1.204693103     1.597793103     0.819396552      0    0    0 #  cp/C
 6  1  2   -0.126800   -2.570293103     1.860693103     0.711196552      0    0    0 #  cp/C
 7  1  8   -0.053000   -0.005693103     4.779993103     2.152796552      0    0    0 #  oc/O
 8  1  2    0.000000   -0.670193103    -1.884806897     0.199596552      0    0    0 #  cp/C
 9  1  2    0.000000    0.614606897    -1.470006897     0.541596552      0    0    0 #  cp/C
10  1  2    0.000000    1.619106897    -2.385406897     0.801196552      0    0    0 #  cp/C
11  1  2    0.000000    1.307806897    -3.744706897     0.720696552      0    0    0 #  cp/C
12  1  2    0.000000    0.012006897    -4.163106897     0.375796552      0    0    0 #  cp/C
13  1  2    0.000000   -0.989993103    -3.227706897     0.106696552      0    0    0 #  cp/C
14  1  2   -0.126800   -2.370593103    -3.665906897    -0.271503448      0    0    0 #  cp/C
15  1  2    0.000000   -0.298093103    -5.625506897     0.295696552      0    0    0 #  cp/C
16  1  2    0.000000    2.365306897    -4.765506897     1.004896552      0    0    0 #  cp/C
17  1  2   -0.126800    3.000406897    -1.931906897     1.158196552      0    0    0 #  cp/C
18  1  1    0.479100   -1.519693103    -0.686006897    -0.056203448      0    0    0 #  c5/C
19  1  5   -0.248100   -0.748693103     0.467393103     0.477296552      0    0    0 #  nn/N
20  1  1    0.479100    0.668206897     0.020393103     0.526396552      0    0    0 #  c5/C
21  1  7   -0.396400   -2.605393103    -0.658306897    -0.585203448      0    0    0 #  o_1/O
22  1  7   -0.396400    1.654706897     0.717193103     0.549096552      0    0    0 #  o_1/O
23  1  3    0.126800   -4.149693103     3.313493103     1.002796552      0    0    0 #  hpan/H
24  1  3    0.126800   -2.605993103     5.070693103     1.870796552      0    0    0 #  hpan/H
25  1  3    0.126800    0.735206897     2.372993103     1.389896552      0    0    0 #  hpan/H
26  1  3    0.126800   -3.250993103     1.085993103     0.328496552      0    0    0 #  hpan/H
27  2  6   -0.820000    5.500406897    -0.123506897    -6.406603448      0    0    0 #  o*/O
28  2  4    0.410000    5.767706897    -0.984006897    -6.681403448      0    0    0 #  hw/H
29  2  4    0.410000    6.212806897     0.429193103    -6.679403448      0    0    0 #  hw/H

Bonds

  1   4     1     2  
  2   4     1     6  
  3   5     1    23  
  4   4     2     3  
  5   5     2    24  
  6   4     3     4  
  7   7     3     7  
  8   4     4     5  
  9   5     4    25  
 10   4     5     6  
 11   6     5    19  
 12   5     6    26  
 13   4     8     9  
 14   4     8    13  
 15   1    18     8  
 16   4     9    10  
 17   1    20     9  
 18   4    10    11  
 19   4    10    17  
 20   4    11    12  
 21   4    11    16  
 22   4    12    13  
 23   4    12    15  
 24   4    13    14  
 25   2    18    19  
 26   3    18    21  
 27   2    20    19  
 28   3    20    22  
 29   8    28    27  
 30   8    29    27  

Angles

  1   6     2     1     6  
  2   7     6     1    23  
  3   7     2     1    23  
  4   7     1     2    24  
  5   7     3     2    24  
  6   6     1     2     3  
  7   9     4     3     7  
  8   6     2     3     4  
  9   9     2     3     7  
 10   7     3     4    25  
 11   7     5     4    25  
 12   6     3     4     5  
 13   6     4     5     6  
 14   8     6     5    19  
 15   8     4     5    19  
 16   7     5     6    26  
 17   6     1     6     5  
 18   7     1     6    26  
 19   1    18     8     9  
 20   1    18     8    13  
 21   6     9     8    13  
 22   1    20     9     8  
 23   1    20     9    10  
 24   6     8     9    10  
 25   6     9    10    11  
 26   6     9    10    17  
 27   6    11    10    17  
 28   6    10    11    12  
 29   6    12    11    16  
 30   6    10    11    16  
 31   6    11    12    13  
 32   6    11    12    15  
 33   6    13    12    15  
 34   6     8    13    14  
 35   6     8    13    12  
 36   6    12    13    14  
 37   11   19    18    21  
 38   4     8    18    19  
 39   5     8    18    21  
 40   3    20    19     5  
 41   2    18    19    20  
 42   3    18    19     5  
 43   4     9    20    19  
 44   5     9    20    22  
 45   11   19    20    22  
 46   10   28    27    29  

Dihedrals

  1   7    23     1     6    26  
  2   5     2     1     6     5  
  3   8     2     1     6    26  
  4   8     6     1     2    24  
  5   7    23     1     2    24  
  6   5     3     2     1     6  
  7   5     1     2     3     4  
  8   12    1     2     3     7  
  9   8     3     2     1    23  
 10   11   25     4     3     7  
 11   5     2     3     4     5  
 12   11   24     2     3     7  
 13   8     4     3     2    24  
 14   8     2     3     4    25  
 15   12    5     4     3     7  
 16   9     3     4     5    19  
 17   5     3     4     5     6  
 18   10   25     4     5    19  
 19   8     6     5     4    25  
 20   16    4     5    19    18  
 21   16    6     5    19    18  
 22   8     4     5     6    26  
 23   10   26     6     5    19  
 24   16    4     5    19    20  
 25   16    6     5    19    20  
 26   5     1     6     5     4  
 27   9     1     6     5    19  
 28   8     5     6     1    23  
 29   2    13     8    18    19  
 30   3     9     8    18    21  
 31   4    18     8     9    20  
 32   5     9     8    13    12  
 33   3    13     8    18    21  
 34   5     9     8    13    14  
 35   6    20     9     8    13  
 36   2     9     8    18    19  
 37   6    18     8     9    10  
 38   2     8     9    20    19  
 39   3     8     9    20    22  
 40   5     8     9    10    11  
 41   5     8     9    10    17  
 42   3    10     9    20    22  
 43   2    10     9    20    19  
 44   5    10     9     8    13  
 45   5     9    10    11    12  
 46   6    20     9    10    11  
 47   6    20     9    10    17  
 48   5     9    10    11    16  
 49   5    10    11    12    15  
 50   5    10    11    12    13  
 51   5    12    11    10    17  
 52   5    16    11    10    17  
 53   5    13    12    11    16  
 54   5    15    12    11    16  
 55   5    11    12    13    14  
 56   6    18     8    13    12  
 57   6    18     8    13    14  
 58   5    14    13    12    15  
 59   5     8    13    12    15  
 60   5     8    13    12    11  
 61   13    8    18    19    20  
 62   14   22    20    19     5  
 63   14   21    18    19     5  
 64   15   21    18    19    20  
 65   1     9    20    19     5  
 66   15   22    20    19    18  
 67   1     8    18    19     5  
 68   13    9    20    19    18  

Impropers

  1   5     2     1     6    23  
  2   5     1     2     3    24  
  3   7     2     3     4     7  
  4   5     3     4     5    25  
  5   6     4     5     6    19  
  6   5     1     6     5    26  
  7   1    18     8     9    13  
  8   1    20     9     8    10  
  9   4     9    10    11    17  
 10   4    10    11    12    16  
 11   4    11    12    13    15  
 12   4     8    13    12    14  
 13   3     8    18    19    21  
 14   2    18    19    20     5  
 15   3     9    20    19    22  
