HEADER,  pre1.mol2  read w/ mol2SYBYL2lmp > atom_typing v1.4 / 2 May 2023 w/PCFF-IFF atom-types > all2lmp: v1.7 / 2 May 2023  Class: 2

29 atoms
30 bonds
46 angles
64 dihedrals
15 impropers

8 atom types
8 bond types
11 angle types
14 dihedral types
7 improper types

-7.370200000 7.283600000 xlo xhi
-3.822800000 3.518700000 ylo yhi
-5.406693103 3.462306897 zlo zhi

Masses

1   12.01115000  #  c5   
2   12.01115000  #  cp   
3    1.00800000  #  hn2  
4    1.00797000  #  hpan 
5   14.00670000  #  nn   
6   15.99940000  #  o_1  
7   15.99940000  #  oc   
8   15.99940000  #  op   

Pair Coeffs  # lj/class2/coul/long

1         0.06400000      4.01000000 #  c5   
2         0.06400000      4.01000000 #  cp   
3         0.01300000      1.65000000 #  hn2  
4         0.02000000      2.30000000 #  hpan 
5         0.06500000      4.07000000 #  nn   
6         0.26700000      3.30000000 #  o_1  
7         0.24000000      3.53500000 #  oc   
8         0.10900000      3.53500000 #  op   

Bond Coeffs  # class2

1         1.41700000    470.83610000   -627.61790000   1327.63450000 #  c5          cp   
2         1.33000000    297.48520000      0.00000000      0.00000000 #  c5         o_1   
3         1.35970000    547.51690000   -834.06650000    544.30900000 #  c5          op   
4         1.41700000    470.83610000   -627.61790000   1327.63450000 #  cp          cp   
5         1.09820000    372.82510000   -803.45260000    894.31730000 #  cp        hpan   
6         1.39120000    447.04380000   -784.53460000    886.16710000 #  cp          nn   
7         1.37680000    428.87980000   -738.23510000   1114.96550000 #  cp          oc   
8         1.02600000    457.45920000      0.00000000      0.00000000 #  hn2         nn   

Angle Coeffs  # class2

1       118.90000000     61.02260000    -34.99310000      0.00000000 #  c5         cp         cp   
2       103.43000000    112.44970000    -25.73260000      0.00000000 #  c5         op         c5   
3       120.00000000     60.00000000      0.00000000      0.00000000 #  cp         c5        o_1   
4       104.17000000    101.32060000    -17.30720000      0.00000000 #  cp         c5         op   
5       118.90000000     61.02260000    -34.99310000      0.00000000 #  cp         cp         cp   
6       117.94000000     35.15580000    -12.46820000      0.00000000 #  cp         cp       hpan   
7       121.45840000     61.06470000    -21.61720000      0.00000000 #  cp         cp         nn   
8       123.42000000     73.67810000    -21.67870000      0.00000000 #  cp         cp         oc   
9       122.00000000     35.00000000      0.00000000      0.00000000 #  cp         nn        hn2   
10      122.00000000     35.00000000      0.00000000      0.00000000 #  hn2        nn        hn2   
11      120.00000000     60.00000000      0.00000000      0.00000000 #  o_1        c5         op   

Dihedral Coeffs  # class2

1         0.00000000      0.00000000      3.00000000      0.00000000      0.00000000      0.00000000 #  cp         cp        c5        o_1   
2         0.00000000      0.00000000     10.69230000      0.00000000      0.00000000      0.00000000 #  cp         cp        c5         op   
3         8.36670000      0.00000000      1.19320000      0.00000000      0.00000000      0.00000000 #  c5         cp        cp         c5   
4         8.36670000      0.00000000      1.19320000      0.00000000      0.00000000      0.00000000 #  cp         cp        cp         cp   
5         8.36670000      0.00000000      1.19320000      0.00000000      0.00000000      0.00000000 #  c5         cp        cp         cp   
6         0.00000000      0.00000000      1.87690000      0.00000000      0.00000000      0.00000000 #  hpan       cp        cp       hpan   
7         0.00000000      0.00000000      3.96610000      0.00000000      0.00000000      0.00000000 #  cp         cp        cp       hpan   
8         0.00000000      0.00000000      5.38260000      0.00000000      0.00000000      0.00000000 #  cp         cp        cp         nn   
9         0.00000000      0.00000000      1.33310000      0.00000000      0.00000000      0.00000000 #  hpan       cp        cp         nn   
10        0.00000000      0.00000000      1.72340000      0.00000000      0.00000000      0.00000000 #  hpan       cp        cp         oc   
11        0.00000000      0.00000000      4.84980000      0.00000000      0.00000000      0.00000000 #  cp         cp        cp         oc   
12        0.00000000      0.00000000      2.25000000      0.00000000      0.00000000      0.00000000 #  cp         cp        nn        hn2   
13        0.00000000      0.00000000     27.54020000      0.00000000      0.00000000      0.00000000 #  cp         c5        op         c5   
14        0.00000000      0.00000000      1.80000000      0.00000000      0.00000000      0.00000000 #  o_1        c5        op         c5   

Improper Coeffs  # class2

1         7.17940000      0.00000000 #  c5         cp        cp        cp      nb==3   
2        10.00000000      0.00000000 #  cp         c5       o_1        op      nb==3   
3         7.17940000      0.00000000 #  cp         cp        cp        cp      nb==3   
4         4.89120000      0.00000000 #  cp         cp        cp       hpan     nb==3   
5        10.78550000      0.00000000 #  cp         cp        cp        nn      nb==3   
6        13.04210000      0.00000000 #  cp         cp        cp        oc      nb==3   
7         0.10000000      0.00000000 #  cp         nn       hn2       hn2      nb==3   

BondBond Coeffs  # class2

1        68.28560000      1.41700000      1.41700000 #  c5         cp         cp   
2       109.90800000      1.35970000      1.35970000 #  c5         op         c5   
3         0.00000000      1.41700000      1.33000000 #  cp         c5        o_1   
4        80.02900000      1.41700000      1.35970000 #  cp         c5         op   
5        68.28560000      1.41700000      1.41700000 #  cp         cp         cp   
6         1.07950000      1.41700000      1.09820000 #  cp         cp       hpan   
7        46.95130000      1.41700000      1.39120000 #  cp         cp         nn   
8        48.47540000      1.41700000      1.37680000 #  cp         cp         oc   
9         0.00000000      1.39120000      1.02600000 #  cp         nn        hn2   
10        0.00000000      1.02600000      1.02600000 #  hn2        nn        hn2   
11        0.00000000      1.33000000      1.35970000 #  o_1        c5         op   

BondAngle Coeffs  # class2

1        28.87080000     28.87080000      1.41700000      1.41700000 #  c5         cp         cp   
2       222.41250000    222.41250000      1.35970000      1.35970000 #  c5         op         c5   
3         0.00000000      0.00000000      1.41700000      1.33000000 #  cp         c5        o_1   
4        97.67700000    187.82820000      1.41700000      1.35970000 #  cp         c5         op   
5        28.87080000     28.87080000      1.41700000      1.41700000 #  cp         cp         cp   
6        20.00330000     24.21830000      1.41700000      1.09820000 #  cp         cp       hpan   
7        39.40400000     73.65480000      1.41700000      1.39120000 #  cp         cp         nn   
8        58.47900000    107.68060000      1.41700000      1.37680000 #  cp         cp         oc   
9         0.00000000      0.00000000      1.39120000      1.02600000 #  cp         nn        hn2   
10        0.00000000      0.00000000      1.02600000      1.02600000 #  hn2        nn        hn2   
11        0.00000000      0.00000000      1.33000000      1.35970000 #  o_1        c5         op   

AngleAngleTorsion Coeffs  # class2

1         0.00000000    118.90000000    120.00000000 #  cp         cp        c5        o_1   
2         0.00000000    118.90000000    104.17000000 #  cp         cp        c5         op   
3         0.00000000    118.90000000    118.90000000 #  c5         cp        cp         c5   
4         0.00000000    118.90000000    118.90000000 #  cp         cp        cp         cp   
5         0.00000000    118.90000000    118.90000000 #  c5         cp        cp         cp   
6         0.35980000    117.94000000    117.94000000 #  hpan       cp        cp       hpan   
7        -4.81410000    118.90000000    117.94000000 #  cp         cp        cp       hpan   
8         0.00000000    118.90000000    121.45840000 #  cp         cp        cp         nn   
9         0.00000000    117.94000000    121.45840000 #  hpan       cp        cp         nn   
10        4.22960000    117.94000000    123.42000000 #  hpan       cp        cp         oc   
11      -21.02470000    118.90000000    123.42000000 #  cp         cp        cp         oc   
12        0.00000000    121.45840000    122.00000000 #  cp         cp        nn        hn2   
13        0.00000000    104.17000000    103.43000000 #  cp         c5        op         c5   
14        0.00000000    120.00000000    103.43000000 #  o_1        c5        op         c5   

EndBondTorsion Coeffs  # class2

1         0.00000000      0.00000000      0.00000000      0.00000000      0.00000000      0.00000000      1.41700000      1.33000000 #  cp         cp        c5        o_1   
2         0.00000000    -30.54140000      0.00000000      0.00000000    -19.32850000      0.00000000      1.41700000      1.35970000 #  cp         cp        c5         op   
3        -0.11850000      6.32040000      0.00000000     -0.11850000      6.32040000      0.00000000      1.41700000      1.41700000 #  c5         cp        cp         c5   
4        -0.11850000      6.32040000      0.00000000     -0.11850000      6.32040000      0.00000000      1.41700000      1.41700000 #  cp         cp        cp         cp   
5        -0.11850000      6.32040000      0.00000000     -0.11850000      6.32040000      0.00000000      1.41700000      1.41700000 #  c5         cp        cp         cp   
6         0.00000000     -0.68900000      0.00000000      0.00000000     -0.68900000      0.00000000      1.09820000      1.09820000 #  hpan       cp        cp       hpan   
7         0.00000000     -6.89580000      0.00000000      0.00000000     -0.46690000      0.00000000      1.41700000      1.09820000 #  cp         cp        cp       hpan   
8         0.00000000     -6.54040000      0.00000000      0.00000000     -7.34770000      0.00000000      1.41700000      1.39120000 #  cp         cp        cp         nn   
9         0.00000000     -2.64820000      0.00000000      0.00000000     -1.64020000      0.00000000      1.09820000      1.39120000 #  hpan       cp        cp         nn   
10        0.00000000     -1.58670000      0.00000000      0.00000000      4.26410000      0.00000000      1.09820000      1.37680000 #  hpan       cp        cp         oc   
11        0.00000000      0.26550000      0.00000000      0.00000000      4.89050000      0.00000000      1.41700000      1.37680000 #  cp         cp        cp         oc   
12        0.00000000      0.00000000      0.00000000      0.00000000      0.00000000      0.00000000      1.41700000      1.02600000 #  cp         cp        nn        hn2   
13        0.00000000    -10.40960000      0.00000000      0.00000000    -22.45670000      0.00000000      1.41700000      1.35970000 #  cp         c5        op         c5   
14        0.00000000      0.00000000      0.00000000      0.00000000      0.00000000      0.00000000      1.33000000      1.35970000 #  o_1        c5        op         c5   

MiddleBondTorsion Coeffs  # class2

1         0.00000000      0.00000000      0.00000000      1.41700000 #  cp         cp        c5        o_1   
2         0.00000000     26.42720000      0.00000000      1.41700000 #  cp         cp        c5         op   
3        27.59890000     -2.31200000      0.00000000      1.41700000 #  c5         cp        cp         c5   
4        27.59890000     -2.31200000      0.00000000      1.41700000 #  cp         cp        cp         cp   
5        27.59890000     -2.31200000      0.00000000      1.41700000 #  c5         cp        cp         cp   
6         0.00000000      4.82280000      0.00000000      1.41700000 #  hpan       cp        cp       hpan   
7         0.00000000     -1.15210000      0.00000000      1.41700000 #  cp         cp        cp       hpan   
8         0.00000000     -0.56930000      0.00000000      1.41700000 #  cp         cp        cp         nn   
9         0.00000000      2.28830000      0.00000000      1.41700000 #  hpan       cp        cp         nn   
10        0.00000000      5.54320000      0.00000000      1.41700000 #  hpan       cp        cp         oc   
11        0.00000000      4.82550000      0.00000000      1.41700000 #  cp         cp        cp         oc   
12        0.00000000      0.00000000      0.00000000      1.39120000 #  cp         cp        nn        hn2   
13        0.00000000     42.29660000      0.00000000      1.35970000 #  cp         c5        op         c5   
14        0.00000000      0.00000000      0.00000000      1.35970000 #  o_1        c5        op         c5   

BondBond13 Coeffs  # class2

1         0.00000000      1.41700000      1.33000000 #  cp         cp        c5        o_1   
2       -73.84100000      1.41700000      1.35970000 #  cp         cp        c5         op   
3        53.00000000      1.41700000      1.41700000 #  c5         cp        cp         c5   
4        53.00000000      1.41700000      1.41700000 #  cp         cp        cp         cp   
5        53.00000000      1.41700000      1.41700000 #  c5         cp        cp         cp   
6        -1.70770000      1.09820000      1.09820000 #  hpan       cp        cp       hpan   
7        -6.27410000      1.41700000      1.09820000 #  cp         cp        cp       hpan   
8        -9.79990000      1.41700000      1.39120000 #  cp         cp        cp         nn   
9        -1.07460000      1.09820000      1.39120000 #  hpan       cp        cp         nn   
10        2.05170000      1.09820000      1.37680000 #  hpan       cp        cp         oc   
11       -2.24360000      1.41700000      1.37680000 #  cp         cp        cp         oc   
12        0.00000000      1.41700000      1.02600000 #  cp         cp        nn        hn2   
13      -73.84100000      1.41700000      1.35970000 #  cp         c5        op         c5   
14        0.00000000      1.33000000      1.35970000 #  o_1        c5        op         c5   

AngleTorsion Coeffs  # class2

1         0.00000000      0.00000000      0.00000000      0.00000000      0.00000000      0.00000000    118.90000000    120.00000000 #  cp         cp        c5        o_1   
2         0.00000000     15.07200000      0.00000000      0.00000000     22.83700000      0.00000000    118.90000000    104.17000000 #  cp         cp        c5         op   
3         1.97670000      1.02390000      0.00000000      1.97670000      1.02390000      0.00000000    118.90000000    118.90000000 #  c5         cp        cp         c5   
4         1.97670000      1.02390000      0.00000000      1.97670000      1.02390000      0.00000000    118.90000000    118.90000000 #  cp         cp        cp         cp   
5         1.97670000      1.02390000      0.00000000      1.97670000      1.02390000      0.00000000    118.90000000    118.90000000 #  c5         cp        cp         cp   
6         0.00000000      2.45010000      0.00000000      0.00000000      2.45010000      0.00000000    117.94000000    117.94000000 #  hpan       cp        cp       hpan   
7         0.00000000      2.50140000      0.00000000      0.00000000      2.71470000      0.00000000    118.90000000    117.94000000 #  cp         cp        cp       hpan   
8         0.00000000      9.09010000      0.00000000      0.00000000     -6.08820000      0.00000000    118.90000000    121.45840000 #  cp         cp        cp         nn   
9         0.00000000      2.98130000      0.00000000      0.00000000      0.27870000      0.00000000    117.94000000    121.45840000 #  hpan       cp        cp         nn   
10        0.00000000      1.87290000      0.00000000      0.00000000      2.57060000      0.00000000    117.94000000    123.42000000 #  hpan       cp        cp         oc   
11        0.00000000     10.01550000      0.00000000      0.00000000      1.74040000      0.00000000    118.90000000    123.42000000 #  cp         cp        cp         oc   
12        0.00000000      0.00000000      0.00000000      0.00000000      0.00000000      0.00000000    121.45840000    122.00000000 #  cp         cp        nn        hn2   
13        0.00000000     35.31580000      0.00000000      0.00000000     38.14160000      0.00000000    104.17000000    103.43000000 #  cp         c5        op         c5   
14        0.00000000      0.00000000      0.00000000      0.00000000      0.00000000      0.00000000    120.00000000    103.43000000 #  o_1        c5        op         c5   

AngleAngle Coeffs  # class2

1         0.00000000      0.00000000      0.00000000    118.90000000    118.90000000    118.90000000 #  c5         cp        cp        cp      nb==3   
2         0.00000000      0.00000000      0.00000000    120.00000000    120.00000000    104.17000000 #  cp         c5       o_1        op      nb==3   
3         0.00000000      0.00000000      0.00000000    118.90000000    118.90000000    118.90000000 #  cp         cp        cp        cp      nb==3   
4         0.00000000      0.00000000      0.00000000    118.90000000    117.94000000    117.94000000 #  cp         cp        cp       hpan     nb==3   
5         0.00000000      0.00000000      0.00000000    118.90000000    121.45840000    121.45840000 #  cp         cp        cp        nn      nb==3   
6         0.00000000      0.00000000      0.00000000    118.90000000    123.42000000    123.42000000 #  cp         cp        cp        oc      nb==3   
7         0.00000000      0.00000000      0.00000000    122.00000000    122.00000000    122.00000000 #  cp         nn       hn2       hn2      nb==3   

Atoms # full

 1  2  2   -0.126800   -4.734000000    -0.595600000    -3.868193103      0    0    0 #  cp/C
 2  2  2   -0.126800   -5.874800000    -0.276300000    -3.131993103      0    0    0 #  cp/C
 3  2  2    0.026500   -5.753500000     0.167200000    -1.815093103      0    0    0 #  cp/C
 4  2  2   -0.126800   -4.491300000     0.291400000    -1.234493103      0    0    0 #  cp/C
 5  2  2    0.082700   -3.350500000    -0.027900000    -1.970693103      0    0    0 #  cp/C
 6  2  2   -0.126800   -3.471900000    -0.471400000    -3.287593103      0    0    0 #  cp/C
 7  2  7   -0.053000   -6.861700000     0.477500000    -1.099793103      0    0    0 #  oc/O
 8  2  5   -0.082700   -2.205000000     0.084700000    -1.443693103      0    0    0 #  nn/N
 9  2  4    0.126800   -4.829700000    -0.945300000    -4.906693103      0    0    0 #  hpan/H
10  2  4    0.126800   -6.870200000    -0.374300000    -3.589793103      0    0    0 #  hpan/H
11  2  4    0.126800   -4.395700000     0.641200000    -0.195993103      0    0    0 #  hpan/H
12  2  4    0.126800   -2.572200000    -0.723200000    -3.868293103      0    0    0 #  hpan/H
13  2  3    0.000000   -1.346200000    -0.155700000    -1.997893103      0    0    0 #  hn2/H
14  2  3    0.000000   -2.113600000     0.418500000    -0.452293103      0    0    0 #  hn2/H
15  1  2    0.000000    3.122700000     0.419400000     1.989306897      0    0    0 #  cp/C
16  1  2    0.000000    4.401100000     0.834200000     2.330106897      0    0    0 #  cp/C
17  1  2    0.000000    5.404400000    -0.080500000     2.601106897      0    0    0 #  cp/C
18  1  2    0.000000    5.095300000    -1.440500000     2.528506897      0    0    0 #  cp/C
19  1  2    0.000000    3.801100000    -1.860300000     2.183706897      0    0    0 #  cp/C
20  1  2    0.000000    2.801700000    -0.924800000     1.907306897      0    0    0 #  cp/C
21  1  2   -0.126800    1.420400000    -1.363700000     1.532506897      0    0    0 #  cp/C
22  1  2    0.000000    3.489500000    -3.322800000     2.111506897      0    0    0 #  cp/C
23  1  2    0.000000    6.152900000    -2.458900000     2.820906897      0    0    0 #  cp/C
24  1  2   -0.126800    6.783600000     0.376000000     2.962306897      0    0    0 #  cp/C
25  1  1    0.424700    2.273500000     1.608600000     1.733306897      0    0    0 #  c5/C
26  1  8   -0.056600    3.081400000     2.736600000     2.145306897      0    0    0 #  op/O
27  1  1    0.424700    4.455800000     2.316500000     2.315006897      0    0    0 #  c5/C
28  1  6   -0.396400    1.153800000     1.630700000     1.280506897      0    0    0 #  o_1/O
29  1  6   -0.396400    5.433100000     3.018700000     2.421106897      0    0    0 #  o_1/O

Bonds

  1   4     1     2  
  2   4     1     6  
  3   5     1     9  
  4   4     2     3  
  5   5     2    10  
  6   4     3     4  
  7   7     3     7  
  8   4     4     5  
  9   5     4    11  
 10   4     5     6  
 11   6     5     8  
 12   5     6    12  
 13   8    13     8  
 14   8    14     8  
 15   4    15    16  
 16   4    15    20  
 17   1    25    15  
 18   4    16    17  
 19   1    27    16  
 20   4    17    18  
 21   4    17    24  
 22   4    18    19  
 23   4    18    23  
 24   4    19    20  
 25   4    19    22  
 26   4    20    21  
 27   3    25    26  
 28   2    25    28  
 29   3    27    26  
 30   2    27    29  

Angles

  1   5     2     1     6  
  2   6     2     1     9  
  3   6     6     1     9  
  4   6     3     2    10  
  5   6     1     2    10  
  6   5     1     2     3  
  7   8     4     3     7  
  8   5     2     3     4  
  9   8     2     3     7  
 10   6     5     4    11  
 11   5     3     4     5  
 12   6     3     4    11  
 13   5     4     5     6  
 14   7     6     5     8  
 15   7     4     5     8  
 16   6     1     6    12  
 17   5     1     6     5  
 18   6     5     6    12  
 19   10   13     8    14  
 20   9     5     8    14  
 21   9     5     8    13  
 22   5    16    15    20  
 23   1    25    15    16  
 24   1    25    15    20  
 25   1    27    16    17  
 26   1    27    16    15  
 27   5    15    16    17  
 28   5    16    17    18  
 29   5    16    17    24  
 30   5    18    17    24  
 31   5    17    18    23  
 32   5    19    18    23  
 33   5    17    18    19  
 34   5    18    19    20  
 35   5    18    19    22  
 36   5    20    19    22  
 37   5    15    20    19  
 38   5    19    20    21  
 39   5    15    20    21  
 40   11   28    25    26  
 41   4    15    25    26  
 42   3    15    25    28  
 43   2    25    26    27  
 44   3    16    27    29  
 45   4    16    27    26  
 46   11   29    27    26  

Dihedrals

  1   6     9     1     6    12  
  2   7     6     1     2    10  
  3   7     2     1     6    12  
  4   6     9     1     2    10  
  5   4     2     1     6     5  
  6   4     3     2     1     6  
  7   7     3     2     1     9  
  8   4     1     2     3     4  
  9   11    1     2     3     7  
 10   10   10     2     3     7  
 11   7     4     3     2    10  
 12   4     2     3     4     5  
 13   7     2     3     4    11  
 14   10   11     4     3     7  
 15   11    5     4     3     7  
 16   4     3     4     5     6  
 17   8     3     4     5     8  
 18   9    12     6     5     8  
 19   12    4     5     8    13  
 20   12    6     5     8    13  
 21   9    11     4     5     8  
 22   7     4     5     6    12  
 23   12    4     5     8    14  
 24   7     6     5     4    11  
 25   12    6     5     8    14  
 26   4     1     6     5     4  
 27   7     5     6     1     9  
 28   8     1     6     5     8  
 29   4    16    15    20    21  
 30   1    20    15    25    28  
 31   2    16    15    25    26  
 32   5    27    16    15    20  
 33   1    16    15    25    28  
 34   4    16    15    20    19  
 35   2    20    15    25    26  
 36   3    25    15    16    27  
 37   2    17    16    27    26  
 38   1    17    16    27    29  
 39   1    15    16    27    29  
 40   2    15    16    27    26  
 41   4    17    16    15    20  
 42   4    15    16    17    18  
 43   4    15    16    17    24  
 44   5    25    15    16    17  
 45   5    27    16    17    18  
 46   4    16    17    18    23  
 47   4    16    17    18    19  
 48   5    27    16    17    24  
 49   4    23    18    17    24  
 50   4    17    18    19    20  
 51   4    19    18    17    24  
 52   4    17    18    19    22  
 53   4    22    19    18    23  
 54   4    20    19    18    23  
 55   4    18    19    20    21  
 56   4    21    20    19    22  
 57   4    15    20    19    18  
 58   5    25    15    20    19  
 59   5    25    15    20    21  
 60   4    15    20    19    22  
 61   13   15    25    26    27  
 62   14   28    25    26    27  
 63   14   29    27    26    25  
 64   13   16    27    26    25  

Impropers

  1   4     2     1     6     9  
  2   4     1     2     3    10  
  3   6     2     3     4     7  
  4   4     3     4     5    11  
  5   5     4     5     6     8  
  6   4     1     6     5    12  
  7   7     5     8    13    14  
  8   1    25    15    16    20  
  9   1    27    16    15    17  
 10   3    16    17    18    24  
 11   3    17    18    19    23  
 12   3    18    19    20    22  
 13   3    15    20    19    21  
 14   2    15    25    28    26  
 15   2    16    27    29    26  
