HEADER,  CNT.mol  read w/ mol2lmp > atom_typing v1.9 / 5 January 2024 w/PCFF-IFF atom-types > all2lmp: v1.14 / 18 December 2023  Class: 2 > convert2graphite version: v1.4 / 4 November 2023 w/types2convert=[1]

240 atoms
280 bonds
800 angles
480 dihedrals
80 impropers

3 atom types
2 bond types
3 angle types
1 dihedral types
1 improper types

-4.429290000 4.429310000 xlo xhi
-4.429255000 4.429245000 ylo yhi
-4.056900000 4.056900000 zlo zhi

Masses

 1   12.01115  # cp->cg1
 2   10.01115  # cg1
 3   1.00000   # cge

Pair Coeffs  # lj/class2/coul/long

 1        0.06200000      3.93200000 # cp->cg1
 2        0.06200000      3.93200000 # cg1
 3        0.00001000      0.00001000 # cge

Bond Coeffs  # class2

 1        1.42000000    480.00000000      0.00000000      0.00000000 # cg1        cg1   
 2        0.65000000    250.00000000      0.00000000      0.00000000 # cg1        cge   

Angle Coeffs  # class2

 1      120.00000000     90.00000000      0.00000000      0.00000000 # cg1       cg1        cg1   
 2       90.00000000     50.00000000      0.00000000      0.00000000 # cge       cg1        cg1   
 3      180.00000000     50.00000000      0.00000000      0.00000000 # cge       cg1        cge   

Dihedral Coeffs  # class2

 1        0.00000000      0.00000000      0.00000000      0.00000000      0.00000000      0.00000000 # cg1       cg1       cg1        cg1   

Improper Coeffs  # class2

 1        0.00000000      0.00000000 # cg1       cg1       cg1       cg1      nb==3   

BondBond Coeffs

 1        0.00000000      0.00000000      0.00000000 # cg1       cg1        cg1   
 2        0.00000000      0.00000000      0.00000000 # cge       cg1        cg1   
 3        0.00000000      0.00000000      0.00000000 # cge       cg1        cge   

BondAngle Coeffs

 1        0.00000000      0.00000000      0.00000000      0.00000000 # cg1       cg1        cg1   
 2        0.00000000      0.00000000      0.00000000      0.00000000 # cge       cg1        cg1   
 3        0.00000000      0.00000000      0.00000000      0.00000000 # cge       cg1        cge   

AngleAngleTorsion Coeffs

 1        0.00000000      0.00000000      0.00000000 # cg1       cg1       cg1        cg1   

EndBondTorsion Coeffs

 1        0.00000000      0.00000000      0.00000000      0.00000000      0.00000000      0.00000000      0.00000000      0.00000000 # cg1       cg1       cg1        cg1   

MiddleBondTorsion Coeffs

 1        0.00000000      0.00000000      0.00000000      0.00000000 # cg1       cg1       cg1        cg1   

BondBond13 Coeffs

 1        0.00000000      0.00000000      0.00000000 # cg1       cg1       cg1        cg1   

AngleTorsion Coeffs

 1        0.00000000      0.00000000      0.00000000      0.00000000      0.00000000      0.00000000      0.00000000      0.00000000 # cg1       cg1       cg1        cg1   

AngleAngle Coeffs

 1        0.00000000      0.00000000      0.00000000      0.00000000      0.00000000      0.00000000 # cg1       cg1       cg1       cg1      nb==3   

Atoms # full

  1     1   2   0.250000    3.929310000     0.000045000    -3.556900000   0  0  0  # cg1/C
  2     1   2   0.250000    3.737010000     1.214245000    -2.844200000   0  0  0  # cg1/C
  3     1   2   0.250000    3.178810000     2.309545000    -3.556900000   0  0  0  # cg1/C
  4     1   2   0.250000    2.309610000     3.178845000    -2.844200000   0  0  0  # cg1/C
  5     1   2   0.250000    1.214210000     3.736945000    -3.556900000   0  0  0  # cg1/C
  6     1   2   0.250000    0.000010000     3.929245000    -2.844200000   0  0  0  # cg1/C
  7     1   2   0.250000   -1.214190000     3.736945000    -3.556900000   0  0  0  # cg1/C
  8     1   2   0.250000   -2.309590000     3.178845000    -2.844200000   0  0  0  # cg1/C
  9     1   2   0.250000   -3.178890000     2.309545000    -3.556900000   0  0  0  # cg1/C
  10    1   2   0.250000   -3.736990000     1.214245000    -2.844200000   0  0  0  # cg1/C
  11    1   2   0.250000   -3.929290000     0.000045000    -3.556900000   0  0  0  # cg1/C
  12    1   2   0.250000   -3.736990000    -1.214255000    -2.844200000   0  0  0  # cg1/C
  13    1   2   0.250000   -3.178890000    -2.309555000    -3.556900000   0  0  0  # cg1/C
  14    1   2   0.250000   -2.309590000    -3.178855000    -2.844200000   0  0  0  # cg1/C
  15    1   2   0.250000   -1.214190000    -3.736955000    -3.556900000   0  0  0  # cg1/C
  16    1   2   0.250000    0.000010000    -3.929255000    -2.844200000   0  0  0  # cg1/C
  17    1   2   0.250000    1.214210000    -3.736955000    -3.556900000   0  0  0  # cg1/C
  18    1   2   0.250000    2.309610000    -3.178855000    -2.844200000   0  0  0  # cg1/C
  19    1   2   0.250000    3.178810000    -2.309555000    -3.556900000   0  0  0  # cg1/C
  20    1   2   0.250000    3.737010000    -1.214255000    -2.844200000   0  0  0  # cg1/C
  21    1   2   0.250000    3.929310000     0.000045000    -0.710500000   0  0  0  # cg1/C
  22    1   2   0.250000    3.737010000     1.214245000    -1.423200000   0  0  0  # cg1/C
  23    1   2   0.250000    3.178810000     2.309545000    -0.710500000   0  0  0  # cg1/C
  24    1   2   0.250000    2.309610000     3.178845000    -1.423200000   0  0  0  # cg1/C
  25    1   2   0.250000    1.214210000     3.736945000    -0.710500000   0  0  0  # cg1/C
  26    1   2   0.250000    0.000010000     3.929245000    -1.423200000   0  0  0  # cg1/C
  27    1   2   0.250000   -1.214190000     3.736945000    -0.710500000   0  0  0  # cg1/C
  28    1   2   0.250000   -2.309590000     3.178845000    -1.423200000   0  0  0  # cg1/C
  29    1   2   0.250000   -3.178890000     2.309545000    -0.710500000   0  0  0  # cg1/C
  30    1   2   0.250000   -3.736990000     1.214245000    -1.423200000   0  0  0  # cg1/C
  31    1   2   0.250000   -3.929290000     0.000045000    -0.710500000   0  0  0  # cg1/C
  32    1   2   0.250000   -3.736990000    -1.214255000    -1.423200000   0  0  0  # cg1/C
  33    1   2   0.250000   -3.178890000    -2.309555000    -0.710500000   0  0  0  # cg1/C
  34    1   2   0.250000   -2.309590000    -3.178855000    -1.423200000   0  0  0  # cg1/C
  35    1   2   0.250000   -1.214190000    -3.736955000    -0.710500000   0  0  0  # cg1/C
  36    1   2   0.250000    0.000010000    -3.929255000    -1.423200000   0  0  0  # cg1/C
  37    1   2   0.250000    1.214210000    -3.736955000    -0.710500000   0  0  0  # cg1/C
  38    1   2   0.250000    2.309610000    -3.178855000    -1.423200000   0  0  0  # cg1/C
  39    1   2   0.250000    3.178810000    -2.309555000    -0.710500000   0  0  0  # cg1/C
  40    1   2   0.250000    3.737010000    -1.214255000    -1.423200000   0  0  0  # cg1/C
  41    1   2   0.250000    3.929310000     0.000045000     0.710500000   0  0  0  # cg1/C
  42    1   2   0.250000    3.737010000     1.214245000     1.423200000   0  0  0  # cg1/C
  43    1   2   0.250000    3.178810000     2.309545000     0.710500000   0  0  0  # cg1/C
  44    1   2   0.250000    2.309610000     3.178845000     1.423200000   0  0  0  # cg1/C
  45    1   2   0.250000    1.214210000     3.736945000     0.710500000   0  0  0  # cg1/C
  46    1   2   0.250000    0.000010000     3.929245000     1.423200000   0  0  0  # cg1/C
  47    1   2   0.250000   -1.214190000     3.736945000     0.710500000   0  0  0  # cg1/C
  48    1   2   0.250000   -2.309590000     3.178845000     1.423200000   0  0  0  # cg1/C
  49    1   2   0.250000   -3.178890000     2.309545000     0.710500000   0  0  0  # cg1/C
  50    1   2   0.250000   -3.736990000     1.214245000     1.423200000   0  0  0  # cg1/C
  51    1   2   0.250000   -3.929290000     0.000045000     0.710500000   0  0  0  # cg1/C
  52    1   2   0.250000   -3.736990000    -1.214255000     1.423200000   0  0  0  # cg1/C
  53    1   2   0.250000   -3.178890000    -2.309555000     0.710500000   0  0  0  # cg1/C
  54    1   2   0.250000   -2.309590000    -3.178855000     1.423200000   0  0  0  # cg1/C
  55    1   2   0.250000   -1.214190000    -3.736955000     0.710500000   0  0  0  # cg1/C
  56    1   2   0.250000    0.000010000    -3.929255000     1.423200000   0  0  0  # cg1/C
  57    1   2   0.250000    1.214210000    -3.736955000     0.710500000   0  0  0  # cg1/C
  58    1   2   0.250000    2.309610000    -3.178855000     1.423200000   0  0  0  # cg1/C
  59    1   2   0.250000    3.178810000    -2.309555000     0.710500000   0  0  0  # cg1/C
  60    1   2   0.250000    3.737010000    -1.214255000     1.423200000   0  0  0  # cg1/C
  61    1   2   0.250000    3.929310000     0.000045000     3.556900000   0  0  0  # cg1/C
  62    1   2   0.250000    3.737010000     1.214245000     2.844200000   0  0  0  # cg1/C
  63    1   2   0.250000    3.178810000     2.309545000     3.556900000   0  0  0  # cg1/C
  64    1   2   0.250000    2.309610000     3.178845000     2.844200000   0  0  0  # cg1/C
  65    1   2   0.250000    1.214210000     3.736945000     3.556900000   0  0  0  # cg1/C
  66    1   2   0.250000    0.000010000     3.929245000     2.844200000   0  0  0  # cg1/C
  67    1   2   0.250000   -1.214190000     3.736945000     3.556900000   0  0  0  # cg1/C
  68    1   2   0.250000   -2.309590000     3.178845000     2.844200000   0  0  0  # cg1/C
  69    1   2   0.250000   -3.178890000     2.309545000     3.556900000   0  0  0  # cg1/C
  70    1   2   0.250000   -3.736990000     1.214245000     2.844200000   0  0  0  # cg1/C
  71    1   2   0.250000   -3.929290000     0.000045000     3.556900000   0  0  0  # cg1/C
  72    1   2   0.250000   -3.736990000    -1.214255000     2.844200000   0  0  0  # cg1/C
  73    1   2   0.250000   -3.178890000    -2.309555000     3.556900000   0  0  0  # cg1/C
  74    1   2   0.250000   -2.309590000    -3.178855000     2.844200000   0  0  0  # cg1/C
  75    1   2   0.250000   -1.214190000    -3.736955000     3.556900000   0  0  0  # cg1/C
  76    1   2   0.250000    0.000010000    -3.929255000     2.844200000   0  0  0  # cg1/C
  77    1   2   0.250000    1.214210000    -3.736955000     3.556900000   0  0  0  # cg1/C
  78    1   2   0.250000    2.309610000    -3.178855000     2.844200000   0  0  0  # cg1/C
  79    1   2   0.250000    3.178810000    -2.309555000     3.556900000   0  0  0  # cg1/C
  80    1   2   0.250000    3.737010000    -1.214255000     2.844200000   0  0  0  # cg1/C
  81    1   3  -0.125000    4.575251209     0.000045000    -3.484374459   0  0  0  # cge/C
  82    1   3  -0.125000    3.283368791     0.000045000    -3.629425541   0  0  0  # cge/C
  83    1   3  -0.125000    4.352691904     1.414318292    -2.902564982   0  0  0  # cge/C
  84    1   3  -0.125000    3.121328096     1.014171708    -2.785835018   0  0  0  # cge/C
  85    1   3  -0.125000    2.656234312     1.929862348    -3.629396444   0  0  0  # cge/C
  86    1   3  -0.125000    3.701385688     2.689227652    -3.484403556   0  0  0  # cge/C
  87    1   3  -0.125000    2.690133199     3.702577575    -2.902563389   0  0  0  # cge/C
  88    1   3  -0.125000    1.929086801     2.655112425    -2.785836611   0  0  0  # cge/C
  89    1   3  -0.125000    1.413808454     4.351274143    -3.484373026   0  0  0  # cge/C
  90    1   3  -0.125000    1.014611546     3.122615857    -3.629426974   0  0  0  # cge/C
  91    1   3  -0.125000    0.000010000     3.281868852    -2.785855137   0  0  0  # cge/C
  92    1   3  -0.125000    0.000010000     4.576621148    -2.902544863   0  0  0  # cge/C
  93    1   3  -0.125000   -1.413788454     4.351274143    -3.484373026   0  0  0  # cge/C
  94    1   3  -0.125000   -1.014591546     3.122615857    -3.629426974   0  0  0  # cge/C
  95    1   3  -0.125000   -1.929079009     2.655102570    -2.785845456   0  0  0  # cge/C
  96    1   3  -0.125000   -2.690100991     3.702587430    -2.902554544   0  0  0  # cge/C
  97    1   3  -0.125000   -3.701462952     2.689225663    -3.484373424   0  0  0  # cge/C
  98    1   3  -0.125000   -2.656317048     1.929864337    -3.629426576   0  0  0  # cge/C
  99    1   3  -0.125000   -3.121299034     1.014195422    -2.785849330   0  0  0  # cge/C
 100    1   3  -0.125000   -4.352680966     1.414294578    -2.902550670   0  0  0  # cge/C
 101    1   3  -0.125000   -4.575231209     0.000045000    -3.484374459   0  0  0  # cge/C
 102    1   3  -0.125000   -3.283348791     0.000045000    -3.629425541   0  0  0  # cge/C
 103    1   3  -0.125000   -4.352683113    -1.414296614    -2.902555320   0  0  0  # cge/C
 104    1   3  -0.125000   -3.121296887    -1.014213386    -2.785844680   0  0  0  # cge/C
 105    1   3  -0.125000   -2.656317048    -1.929874337    -3.629426576   0  0  0  # cge/C
 106    1   3  -0.125000   -3.701462952    -2.689235663    -3.484373424   0  0  0  # cge/C
 107    1   3  -0.125000   -2.690100991    -3.702597430    -2.902554544   0  0  0  # cge/C
 108    1   3  -0.125000   -1.929079009    -2.655112570    -2.785845456   0  0  0  # cge/C
 109    1   3  -0.125000   -1.413788454    -4.351284143    -3.484373026   0  0  0  # cge/C
 110    1   3  -0.125000   -1.014591546    -3.122625857    -3.629426974   0  0  0  # cge/C
 111    1   3  -0.125000    0.000010000    -3.281878852    -2.785855137   0  0  0  # cge/C
 112    1   3  -0.125000    0.000010000    -4.576631148    -2.902544863   0  0  0  # cge/C
 113    1   3  -0.125000    1.413808454    -4.351284143    -3.484373026   0  0  0  # cge/C
 114    1   3  -0.125000    1.014611546    -3.122625857    -3.629426974   0  0  0  # cge/C
 115    1   3  -0.125000    1.929086801    -2.655122425    -2.785836611   0  0  0  # cge/C
 116    1   3  -0.125000    2.690133199    -3.702587575    -2.902563389   0  0  0  # cge/C
 117    1   3  -0.125000    3.701385688    -2.689237652    -3.484403556   0  0  0  # cge/C
 118    1   3  -0.125000    2.656234312    -1.929872348    -3.629396444   0  0  0  # cge/C
 119    1   3  -0.125000    4.352694051    -1.414320327    -2.902569632   0  0  0  # cge/C
 120    1   3  -0.125000    3.121325949    -1.014189673    -2.785830368   0  0  0  # cge/C
 121    1   3  -0.125000    3.281933852     0.000045000    -0.652155137   0  0  0  # cge/C
 122    1   3  -0.125000    4.576686148     0.000045000    -0.768844863   0  0  0  # cge/C
 123    1   3  -0.125000    4.352691904     1.414318292    -1.364835018   0  0  0  # cge/C
 124    1   3  -0.125000    3.121328096     1.014171708    -1.481564982   0  0  0  # cge/C
 125    1   3  -0.125000    3.702545640     2.690070426    -0.768821350   0  0  0  # cge/C
 126    1   3  -0.125000    2.655074360     1.929019574    -0.652178650   0  0  0  # cge/C
 127    1   3  -0.125000    2.690133199     3.702577575    -1.364836611   0  0  0  # cge/C
 128    1   3  -0.125000    1.929086801     2.655112425    -1.481563389   0  0  0  # cge/C
 129    1   3  -0.125000    1.014168127     3.121251090    -0.652153980   0  0  0  # cge/C
 130    1   3  -0.125000    1.414251873     4.352638910    -0.768846020   0  0  0  # cge/C
 131    1   3  -0.125000    0.000010000     3.281868852    -1.481544863   0  0  0  # cge/C
 132    1   3  -0.125000    0.000010000     4.576621148    -1.364855137   0  0  0  # cge/C
 133    1   3  -0.125000   -1.014148127     3.121251090    -0.652153980   0  0  0  # cge/C
 134    1   3  -0.125000   -1.414231873     4.352638910    -0.768846020   0  0  0  # cge/C
 135    1   3  -0.125000   -2.690100991     3.702587430    -1.364845456   0  0  0  # cge/C
 136    1   3  -0.125000   -1.929079009     2.655102570    -1.481554544   0  0  0  # cge/C
 137    1   3  -0.125000   -2.655156135     1.929020864    -0.652154302   0  0  0  # cge/C
 138    1   3  -0.125000   -3.702623865     2.690069136    -0.768845698   0  0  0  # cge/C
 139    1   3  -0.125000   -4.352680966     1.414294578    -1.364849330   0  0  0  # cge/C
 140    1   3  -0.125000   -3.121299034     1.014195422    -1.481550670   0  0  0  # cge/C
 141    1   3  -0.125000   -3.281913852     0.000045000    -0.652155137   0  0  0  # cge/C
 142    1   3  -0.125000   -4.576666148     0.000045000    -0.768844863   0  0  0  # cge/C
 143    1   3  -0.125000   -4.352683113    -1.414296614    -1.364844680   0  0  0  # cge/C
 144    1   3  -0.125000   -3.121296887    -1.014213386    -1.481555320   0  0  0  # cge/C
 145    1   3  -0.125000   -3.702623865    -2.690079136    -0.768845698   0  0  0  # cge/C
 146    1   3  -0.125000   -2.655156135    -1.929030864    -0.652154302   0  0  0  # cge/C
 147    1   3  -0.125000   -2.690100991    -3.702597430    -1.364845456   0  0  0  # cge/C
 148    1   3  -0.125000   -1.929079009    -2.655112570    -1.481554544   0  0  0  # cge/C
 149    1   3  -0.125000   -1.014148127    -3.121261090    -0.652153980   0  0  0  # cge/C
 150    1   3  -0.125000   -1.414231873    -4.352648910    -0.768846020   0  0  0  # cge/C
 151    1   3  -0.125000    0.000010000    -4.576631148    -1.364855137   0  0  0  # cge/C
 152    1   3  -0.125000    0.000010000    -3.281878852    -1.481544863   0  0  0  # cge/C
 153    1   3  -0.125000    1.014168127    -3.121261090    -0.652153980   0  0  0  # cge/C
 154    1   3  -0.125000    1.414251873    -4.352648910    -0.768846020   0  0  0  # cge/C
 155    1   3  -0.125000    2.690133199    -3.702587575    -1.364836611   0  0  0  # cge/C
 156    1   3  -0.125000    1.929086801    -2.655122425    -1.481563389   0  0  0  # cge/C
 157    1   3  -0.125000    2.655074360    -1.929029574    -0.652178650   0  0  0  # cge/C
 158    1   3  -0.125000    3.702545640    -2.690080426    -0.768821350   0  0  0  # cge/C
 159    1   3  -0.125000    4.352694051    -1.414320327    -1.364830368   0  0  0  # cge/C
 160    1   3  -0.125000    3.121325949    -1.014189673    -1.481569632   0  0  0  # cge/C
 161    1   3  -0.125000    4.576686148     0.000045000     0.768844863   0  0  0  # cge/C
 162    1   3  -0.125000    3.281933852     0.000045000     0.652155137   0  0  0  # cge/C
 163    1   3  -0.125000    4.352691904     1.414318292     1.364835018   0  0  0  # cge/C
 164    1   3  -0.125000    3.121328096     1.014171708     1.481564982   0  0  0  # cge/C
 165    1   3  -0.125000    3.702545640     2.690070426     0.768821350   0  0  0  # cge/C
 166    1   3  -0.125000    2.655074360     1.929019574     0.652178650   0  0  0  # cge/C
 167    1   3  -0.125000    2.690133199     3.702577575     1.364836611   0  0  0  # cge/C
 168    1   3  -0.125000    1.929086801     2.655112425     1.481563389   0  0  0  # cge/C
 169    1   3  -0.125000    1.414251873     4.352638910     0.768846020   0  0  0  # cge/C
 170    1   3  -0.125000    1.014168127     3.121251090     0.652153980   0  0  0  # cge/C
 171    1   3  -0.125000    0.000010000     3.281868852     1.481544863   0  0  0  # cge/C
 172    1   3  -0.125000    0.000010000     4.576621148     1.364855137   0  0  0  # cge/C
 173    1   3  -0.125000   -1.414231873     4.352638910     0.768846020   0  0  0  # cge/C
 174    1   3  -0.125000   -1.014148127     3.121251090     0.652153980   0  0  0  # cge/C
 175    1   3  -0.125000   -1.929079009     2.655102570     1.481554544   0  0  0  # cge/C
 176    1   3  -0.125000   -2.690100991     3.702587430     1.364845456   0  0  0  # cge/C
 177    1   3  -0.125000   -3.702623865     2.690069136     0.768845698   0  0  0  # cge/C
 178    1   3  -0.125000   -2.655156135     1.929020864     0.652154302   0  0  0  # cge/C
 179    1   3  -0.125000   -3.121299034     1.014195422     1.481550670   0  0  0  # cge/C
 180    1   3  -0.125000   -4.352680966     1.414294578     1.364849330   0  0  0  # cge/C
 181    1   3  -0.125000   -4.576666148     0.000045000     0.768844863   0  0  0  # cge/C
 182    1   3  -0.125000   -3.281913852     0.000045000     0.652155137   0  0  0  # cge/C
 183    1   3  -0.125000   -4.352683113    -1.414296614     1.364844680   0  0  0  # cge/C
 184    1   3  -0.125000   -3.121296887    -1.014213386     1.481555320   0  0  0  # cge/C
 185    1   3  -0.125000   -3.702623865    -2.690079136     0.768845698   0  0  0  # cge/C
 186    1   3  -0.125000   -2.655156135    -1.929030864     0.652154302   0  0  0  # cge/C
 187    1   3  -0.125000   -2.690100991    -3.702597430     1.364845456   0  0  0  # cge/C
 188    1   3  -0.125000   -1.929079009    -2.655112570     1.481554544   0  0  0  # cge/C
 189    1   3  -0.125000   -1.414231873    -4.352648910     0.768846020   0  0  0  # cge/C
 190    1   3  -0.125000   -1.014148127    -3.121261090     0.652153980   0  0  0  # cge/C
 191    1   3  -0.125000    0.000010000    -3.281878852     1.481544863   0  0  0  # cge/C
 192    1   3  -0.125000    0.000010000    -4.576631148     1.364855137   0  0  0  # cge/C
 193    1   3  -0.125000    1.414251873    -4.352648910     0.768846020   0  0  0  # cge/C
 194    1   3  -0.125000    1.014168127    -3.121261090     0.652153980   0  0  0  # cge/C
 195    1   3  -0.125000    1.929086801    -2.655122425     1.481563389   0  0  0  # cge/C
 196    1   3  -0.125000    2.690133199    -3.702587575     1.364836611   0  0  0  # cge/C
 197    1   3  -0.125000    3.702545640    -2.690080426     0.768821350   0  0  0  # cge/C
 198    1   3  -0.125000    2.655074360    -1.929029574     0.652178650   0  0  0  # cge/C
 199    1   3  -0.125000    4.352694051    -1.414320327     1.364830368   0  0  0  # cge/C
 200    1   3  -0.125000    3.121325949    -1.014189673     1.481569632   0  0  0  # cge/C
 201    1   3  -0.125000    3.283368791     0.000045000     3.629425541   0  0  0  # cge/C
 202    1   3  -0.125000    4.575251209     0.000045000     3.484374459   0  0  0  # cge/C
 203    1   3  -0.125000    4.352691904     1.414318292     2.902564982   0  0  0  # cge/C
 204    1   3  -0.125000    3.121328096     1.014171708     2.785835018   0  0  0  # cge/C
 205    1   3  -0.125000    2.656234312     1.929862348     3.629396444   0  0  0  # cge/C
 206    1   3  -0.125000    3.701385688     2.689227652     3.484403556   0  0  0  # cge/C
 207    1   3  -0.125000    2.690133199     3.702577575     2.902563389   0  0  0  # cge/C
 208    1   3  -0.125000    1.929086801     2.655112425     2.785836611   0  0  0  # cge/C
 209    1   3  -0.125000    1.014611546     3.122615857     3.629426974   0  0  0  # cge/C
 210    1   3  -0.125000    1.413808454     4.351274143     3.484373026   0  0  0  # cge/C
 211    1   3  -0.125000    0.000010000     3.281868852     2.785855137   0  0  0  # cge/C
 212    1   3  -0.125000    0.000010000     4.576621148     2.902544863   0  0  0  # cge/C
 213    1   3  -0.125000   -1.014591546     3.122615857     3.629426974   0  0  0  # cge/C
 214    1   3  -0.125000   -1.413788454     4.351274143     3.484373026   0  0  0  # cge/C
 215    1   3  -0.125000   -2.690100991     3.702587430     2.902554544   0  0  0  # cge/C
 216    1   3  -0.125000   -1.929079009     2.655102570     2.785845456   0  0  0  # cge/C
 217    1   3  -0.125000   -2.656317048     1.929864337     3.629426576   0  0  0  # cge/C
 218    1   3  -0.125000   -3.701462952     2.689225663     3.484373424   0  0  0  # cge/C
 219    1   3  -0.125000   -4.352680966     1.414294578     2.902550670   0  0  0  # cge/C
 220    1   3  -0.125000   -3.121299034     1.014195422     2.785849330   0  0  0  # cge/C
 221    1   3  -0.125000   -3.283348791     0.000045000     3.629425541   0  0  0  # cge/C
 222    1   3  -0.125000   -4.575231209     0.000045000     3.484374459   0  0  0  # cge/C
 223    1   3  -0.125000   -4.352683113    -1.414296614     2.902555320   0  0  0  # cge/C
 224    1   3  -0.125000   -3.121296887    -1.014213386     2.785844680   0  0  0  # cge/C
 225    1   3  -0.125000   -2.656317048    -1.929874337     3.629426576   0  0  0  # cge/C
 226    1   3  -0.125000   -3.701462952    -2.689235663     3.484373424   0  0  0  # cge/C
 227    1   3  -0.125000   -2.690100991    -3.702597430     2.902554544   0  0  0  # cge/C
 228    1   3  -0.125000   -1.929079009    -2.655112570     2.785845456   0  0  0  # cge/C
 229    1   3  -0.125000   -1.014591546    -3.122625857     3.629426974   0  0  0  # cge/C
 230    1   3  -0.125000   -1.413788454    -4.351284143     3.484373026   0  0  0  # cge/C
 231    1   3  -0.125000    0.000010000    -4.576631148     2.902544863   0  0  0  # cge/C
 232    1   3  -0.125000    0.000010000    -3.281878852     2.785855137   0  0  0  # cge/C
 233    1   3  -0.125000    1.014611546    -3.122625857     3.629426974   0  0  0  # cge/C
 234    1   3  -0.125000    1.413808454    -4.351284143     3.484373026   0  0  0  # cge/C
 235    1   3  -0.125000    2.690133199    -3.702587575     2.902563389   0  0  0  # cge/C
 236    1   3  -0.125000    1.929086801    -2.655122425     2.785836611   0  0  0  # cge/C
 237    1   3  -0.125000    2.656234312    -1.929872348     3.629396444   0  0  0  # cge/C
 238    1   3  -0.125000    3.701385688    -2.689237652     3.484403556   0  0  0  # cge/C
 239    1   3  -0.125000    4.352694051    -1.414320327     2.902569632   0  0  0  # cge/C
 240    1   3  -0.125000    3.121325949    -1.014189673     2.785830368   0  0  0  # cge/C

Bonds

1  1  1  2 
2  1  1  20
3  1  1  61
4  1  2  3 
5  1  2  22
6  1  3  4 
7  1  3  63
8  1  4  5 
9  1  4  24
10 1  5  6 
11 1  5  65
12 1  6  7 
13 1  6  26
14 1  7  8 
15 1  7  67
16 1  8  9 
17 1  8  28
18 1  9  10
19 1  9  69
20 1  10 11
21 1  10 30
22 1  11 12
23 1  11 71
24 1  12 13
25 1  12 32
26 1  13 14
27 1  13 73
28 1  14 15
29 1  14 34
30 1  15 16
31 1  15 75
32 1  16 17
33 1  16 36
34 1  17 18
35 1  17 77
36 1  18 19
37 1  18 38
38 1  19 20
39 1  19 79
40 1  20 40
41 1  21 22
42 1  21 40
43 1  21 41
44 1  22 23
45 1  23 24
46 1  23 43
47 1  24 25
48 1  25 26
49 1  25 45
50 1  26 27
51 1  27 28
52 1  27 47
53 1  28 29
54 1  29 30
55 1  29 49
56 1  30 31
57 1  31 32
58 1  31 51
59 1  32 33
60 1  33 34
61 1  33 53
62 1  34 35
63 1  35 36
64 1  35 55
65 1  36 37
66 1  37 38
67 1  37 57
68 1  38 39
69 1  39 40
70 1  39 59
71 1  41 42
72 1  41 60
73 1  42 43
74 1  42 62
75 1  43 44
76 1  44 45
77 1  44 64
78 1  45 46
79 1  46 47
80 1  46 66
81 1  47 48
82 1  48 49
83 1  48 68
84 1  49 50
85 1  50 51
86 1  50 70
87 1  51 52
88 1  52 53
89 1  52 72
90 1  53 54
91 1  54 55
92 1  54 74
93 1  55 56
94 1  56 57
95 1  56 76
96 1  57 58
97 1  58 59
98 1  58 78
99 1  59 60
100 1  60 80
101 1  61 62
102 1  61 80
103 1  62 63
104 1  63 64
105 1  64 65
106 1  65 66
107 1  66 67
108 1  67 68
109 1  68 69
110 1  69 70
111 1  70 71
112 1  71 72
113 1  72 73
114 1  73 74
115 1  74 75
116 1  75 76
117 1  76 77
118 1  77 78
119 1  78 79
120 1  79 80
121 2  1  81
122 2  1  82
123 2  2  83
124 2  2  84
125 2  3  85
126 2  3  86
127 2  4  87
128 2  4  88
129 2  5  89
130 2  5  90
131 2  6  91
132 2  6  92
133 2  7  93
134 2  7  94
135 2  8  95
136 2  8  96
137 2  9  97
138 2  9  98
139 2  10 99
140 2  10 100
141 2  11 101
142 2  11 102
143 2  12 103
144 2  12 104
145 2  13 105
146 2  13 106
147 2  14 107
148 2  14 108
149 2  15 109
150 2  15 110
151 2  16 111
152 2  16 112
153 2  17 113
154 2  17 114
155 2  18 115
156 2  18 116
157 2  19 117
158 2  19 118
159 2  20 119
160 2  20 120
161 2  21 121
162 2  21 122
163 2  22 123
164 2  22 124
165 2  23 125
166 2  23 126
167 2  24 127
168 2  24 128
169 2  25 129
170 2  25 130
171 2  26 131
172 2  26 132
173 2  27 133
174 2  27 134
175 2  28 135
176 2  28 136
177 2  29 137
178 2  29 138
179 2  30 139
180 2  30 140
181 2  31 141
182 2  31 142
183 2  32 143
184 2  32 144
185 2  33 145
186 2  33 146
187 2  34 147
188 2  34 148
189 2  35 149
190 2  35 150
191 2  36 151
192 2  36 152
193 2  37 153
194 2  37 154
195 2  38 155
196 2  38 156
197 2  39 157
198 2  39 158
199 2  40 159
200 2  40 160
201 2  41 161
202 2  41 162
203 2  42 163
204 2  42 164
205 2  43 165
206 2  43 166
207 2  44 167
208 2  44 168
209 2  45 169
210 2  45 170
211 2  46 171
212 2  46 172
213 2  47 173
214 2  47 174
215 2  48 175
216 2  48 176
217 2  49 177
218 2  49 178
219 2  50 179
220 2  50 180
221 2  51 181
222 2  51 182
223 2  52 183
224 2  52 184
225 2  53 185
226 2  53 186
227 2  54 187
228 2  54 188
229 2  55 189
230 2  55 190
231 2  56 191
232 2  56 192
233 2  57 193
234 2  57 194
235 2  58 195
236 2  58 196
237 2  59 197
238 2  59 198
239 2  60 199
240 2  60 200
241 2  61 201
242 2  61 202
243 2  62 203
244 2  62 204
245 2  63 205
246 2  63 206
247 2  64 207
248 2  64 208
249 2  65 209
250 2  65 210
251 2  66 211
252 2  66 212
253 2  67 213
254 2  67 214
255 2  68 215
256 2  68 216
257 2  69 217
258 2  69 218
259 2  70 219
260 2  70 220
261 2  71 221
262 2  71 222
263 2  72 223
264 2  72 224
265 2  73 225
266 2  73 226
267 2  74 227
268 2  74 228
269 2  75 229
270 2  75 230
271 2  76 231
272 2  76 232
273 2  77 233
274 2  77 234
275 2  78 235
276 2  78 236
277 2  79 237
278 2  79 238
279 2  80 239
280 2  80 240

Angles

1  1  2  1  61
2  1  20 1  61
3  1  2  1  20
4  1  3  2  22
5  1  1  2  22
6  1  1  2  3 
7  1  4  3  63
8  1  2  3  63
9  1  2  3  4 
10 1  5  4  24
11 1  3  4  5 
12 1  3  4  24
13 1  4  5  6 
14 1  4  5  65
15 1  6  5  65
16 1  5  6  26
17 1  5  6  7 
18 1  7  6  26
19 1  6  7  8 
20 1  8  7  67
21 1  6  7  67
22 1  9  8  28
23 1  7  8  28
24 1  7  8  9 
25 1  8  9  69
26 1  10 9  69
27 1  8  9  10
28 1  9  10 30
29 1  9  10 11
30 1  11 10 30
31 1  12 11 71
32 1  10 11 12
33 1  10 11 71
34 1  11 12 13
35 1  13 12 32
36 1  11 12 32
37 1  12 13 14
38 1  12 13 73
39 1  14 13 73
40 1  13 14 15
41 1  15 14 34
42 1  13 14 34
43 1  14 15 75
44 1  14 15 16
45 1  16 15 75
46 1  17 16 36
47 1  15 16 36
48 1  15 16 17
49 1  18 17 77
50 1  16 17 18
51 1  16 17 77