HEADER,  graphene.mol2  read w/ mol2SYBYL2lmp > atom_typing v1.9 / 5 January 2024 w/PCFF-IFF atom-types > all2lmp: v1.14 / 18 December 2023  Class: 2 > convert2graphite version: v1.4 / 4 November 2023 w/types2convert=[1]

176 atoms
195 bonds
508 angles
243 dihedrals
40 impropers

4 atom types
3 bond types
4 angle types
2 dihedral types
2 improper types

-6.026080000 6.026120000 xlo xhi
-6.172000000 6.172000000 ylo yhi
-0.500000000 0.500000000 zlo zhi

Masses

 1   12.01115  # cp->cg1
 2   12.01115  # ct
 3   10.01115  # cg1
 4   1.00000   # cge

Pair Coeffs  # lj/class2/coul/long

 1        0.06200000      3.93200000 # cp->cg1
 2        0.06400000      4.01000000 # ct
 3        0.06200000      3.93200000 # cg1
 4        0.00001000      0.00001000 # cge

Bond Coeffs  # class2

 1        1.42000000    480.00000000      0.00000000      0.00000000 # cg1        cg1   
 2        1.40000000    321.67160000      0.00000000      0.00000000 # cp          ct
 3        0.65000000    250.00000000      0.00000000      0.00000000 # cg1        cge   

Angle Coeffs  # class2

 1      120.00000000     90.00000000      0.00000000      0.00000000 # cg1       cg1        cg1   
 2      120.00000000     80.00000000      0.00000000      0.00000000 # cp         cp         ct
 3       90.00000000     50.00000000      0.00000000      0.00000000 # cge       cg1        cg1   
 4      180.00000000     50.00000000      0.00000000      0.00000000 # cge       cg1        cge   

Dihedral Coeffs  # class2

 1        0.00000000      0.00000000      0.00000000      0.00000000      0.00000000      0.00000000 # cg1       cg1       cg1        cg1   
 2        0.00000000      0.00000000      3.00000000      0.00000000      0.00000000      0.00000000 # cp         cp        cp         ct

Improper Coeffs  # class2

 1        0.00000000      0.00000000 # cg1       cg1       cg1       cg1      nb==3   
 2       10.00000000      0.00000000 # cp         cp        cp        ct      nb==3

BondBond Coeffs

 1        0.00000000      0.00000000      0.00000000 # cg1       cg1        cg1   
 2        0.00000000      1.41700000      1.40000000 # cp         cp         ct
 3        0.00000000      0.00000000      0.00000000 # cge       cg1        cg1   
 4        0.00000000      0.00000000      0.00000000 # cge       cg1        cge   

BondAngle Coeffs

 1        0.00000000      0.00000000      0.00000000      0.00000000 # cg1       cg1        cg1   
 2        0.00000000      0.00000000      1.41700000      1.40000000 # cp         cp         ct
 3        0.00000000      0.00000000      0.00000000      0.00000000 # cge       cg1        cg1   
 4        0.00000000      0.00000000      0.00000000      0.00000000 # cge       cg1        cge   

AngleAngleTorsion Coeffs

 1        0.00000000      0.00000000      0.00000000 # cg1       cg1       cg1        cg1   
 2        0.00000000    118.90000000    120.00000000 # cp         cp        cp         ct

EndBondTorsion Coeffs

 1        0.00000000      0.00000000      0.00000000      0.00000000      0.00000000      0.00000000      0.00000000      0.00000000 # cg1       cg1       cg1        cg1   
 2        0.00000000      0.00000000      0.00000000      0.00000000      0.00000000      0.00000000      1.41700000      1.40000000 # cp         cp        cp         ct

MiddleBondTorsion Coeffs

 1        0.00000000      0.00000000      0.00000000      0.00000000 # cg1       cg1       cg1        cg1   
 2        0.00000000      0.00000000      0.00000000      1.41700000 # cp         cp        cp         ct

BondBond13 Coeffs

 1        0.00000000      0.00000000      0.00000000 # cg1       cg1       cg1        cg1   
 2        0.00000000      1.41700000      1.40000000 # cp         cp        cp         ct

AngleTorsion Coeffs

 1        0.00000000      0.00000000      0.00000000      0.00000000      0.00000000      0.00000000      0.00000000      0.00000000 # cg1       cg1       cg1        cg1   
 2        0.00000000      0.00000000      0.00000000      0.00000000      0.00000000      0.00000000    118.90000000    120.00000000 # cp         cp        cp         ct

AngleAngle Coeffs

 1        0.00000000      0.00000000      0.00000000      0.00000000      0.00000000      0.00000000 # cg1       cg1       cg1       cg1      nb==3   
 2        0.00000000      0.00000000      0.00000000    118.90000000    120.00000000    120.00000000 # cp         cp        cp        ct      nb==3

Atoms # full

  1     1   3   0.250000   -4.298080000    -5.672000000     0.000000000   0  0  0  # cg1/C
  2     1   3   0.250000   -5.526080000    -4.963000000     0.000000000   0  0  0  # cg1/C
  3     1   3   0.250000   -5.526080000    -3.545000000     0.000000000   0  0  0  # cg1/C
  4     1   3   0.250000   -4.298080000    -2.836000000     0.000000000   0  0  0  # cg1/C
  5     1   3   0.250000   -1.842080000    -5.672000000     0.000000000   0  0  0  # cg1/C
  6     1   3   0.250000   -3.070080000    -4.963000000     0.000000000   0  0  0  # cg1/C
  7     1   3   0.250000   -3.070080000    -3.545000000     0.000000000   0  0  0  # cg1/C
  8     1   3   0.250000   -1.842080000    -2.836000000     0.000000000   0  0  0  # cg1/C
  9     1   3   0.250000    0.614020000    -5.672000000     0.000000000   0  0  0  # cg1/C
  10    1   3   0.250000   -0.613980000    -4.963000000     0.000000000   0  0  0  # cg1/C
  11    1   3   0.250000   -0.613980000    -3.545000000     0.000000000   0  0  0  # cg1/C
  12    1   3   0.250000    0.614020000    -2.836000000     0.000000000   0  0  0  # cg1/C
  13    1   3   0.250000    3.070020000    -5.672000000     0.000000000   0  0  0  # cg1/C
  14    1   3   0.250000    1.842020000    -4.963000000     0.000000000   0  0  0  # cg1/C
  15    1   3   0.250000    1.842020000    -3.545000000     0.000000000   0  0  0  # cg1/C
  16    1   3   0.250000    3.070020000    -2.836000000     0.000000000   0  0  0  # cg1/C
  17    1   2   0.000000    5.526120000    -5.672000000     0.000000000   0  0  0  # ct/C
  18    1   3   0.250000    4.298120000    -4.963000000     0.000000000   0  0  0  # cg1/C
  19    1   3   0.250000    4.298120000    -3.545000000     0.000000000   0  0  0  # cg1/C
  20    1   3   0.250000    5.526120000    -2.836000000     0.000000000   0  0  0  # cg1/C
  21    1   3   0.250000   -4.298080000    -1.418000000     0.000000000   0  0  0  # cg1/C
  22    1   3   0.250000   -5.526080000    -0.709000000     0.000000000   0  0  0  # cg1/C
  23    1   3   0.250000   -5.526080000     0.709000000     0.000000000   0  0  0  # cg1/C
  24    1   3   0.250000   -4.298080000     1.418000000     0.000000000   0  0  0  # cg1/C
  25    1   3   0.250000   -1.842080000    -1.418000000     0.000000000   0  0  0  # cg1/C
  26    1   3   0.250000   -3.070080000    -0.709000000     0.000000000   0  0  0  # cg1/C
  27    1   3   0.250000   -3.070080000     0.709000000     0.000000000   0  0  0  # cg1/C
  28    1   3   0.250000   -1.842080000     1.418000000     0.000000000   0  0  0  # cg1/C
  29    1   3   0.250000    0.614020000    -1.418000000     0.000000000   0  0  0  # cg1/C
  30    1   3   0.250000   -0.613980000    -0.709000000     0.000000000   0  0  0  # cg1/C
  31    1   3   0.250000   -0.613980000     0.709000000     0.000000000   0  0  0  # cg1/C
  32    1   3   0.250000    0.614020000     1.418000000     0.000000000   0  0  0  # cg1/C
  33    1   3   0.250000    3.070020000    -1.418000000     0.000000000   0  0  0  # cg1/C
  34    1   3   0.250000    1.842020000    -0.709000000     0.000000000   0  0  0  # cg1/C
  35    1   3   0.250000    1.842020000     0.709000000     0.000000000   0  0  0  # cg1/C
  36    1   3   0.250000    3.070020000     1.418000000     0.000000000   0  0  0  # cg1/C
  37    1   3   0.250000    5.526120000    -1.418000000     0.000000000   0  0  0  # cg1/C
  38    1   3   0.250000    4.298120000    -0.709000000     0.000000000   0  0  0  # cg1/C
  39    1   3   0.250000    4.298120000     0.709000000     0.000000000   0  0  0  # cg1/C
  40    1   3   0.250000    5.526120000     1.418000000     0.000000000   0  0  0  # cg1/C
  41    1   3   0.250000   -4.298080000     2.836000000     0.000000000   0  0  0  # cg1/C
  42    1   3   0.250000   -5.526080000     3.545000000     0.000000000   0  0  0  # cg1/C
  43    1   3   0.250000   -5.526080000     4.963000000     0.000000000   0  0  0  # cg1/C
  44    1   3   0.250000   -4.298080000     5.672000000     0.000000000   0  0  0  # cg1/C
  45    1   3   0.250000   -1.842080000     2.836000000     0.000000000   0  0  0  # cg1/C
  46    1   3   0.250000   -3.070080000     3.545000000     0.000000000   0  0  0  # cg1/C
  47    1   3   0.250000   -3.070080000     4.963000000     0.000000000   0  0  0  # cg1/C
  48    1   3   0.250000   -1.842080000     5.672000000     0.000000000   0  0  0  # cg1/C
  49    1   3   0.250000    0.614020000     2.836000000     0.000000000   0  0  0  # cg1/C
  50    1   3   0.250000   -0.613980000     3.545000000     0.000000000   0  0  0  # cg1/C
  51    1   3   0.250000   -0.613980000     4.963000000     0.000000000   0  0  0  # cg1/C
  52    1   3   0.250000    0.614020000     5.672000000     0.000000000   0  0  0  # cg1/C
  53    1   3   0.250000    3.070020000     2.836000000     0.000000000   0  0  0  # cg1/C
  54    1   3   0.250000    1.842020000     3.545000000     0.000000000   0  0  0  # cg1/C
  55    1   3   0.250000    1.842020000     4.963000000     0.000000000   0  0  0  # cg1/C
  56    1   3   0.250000    3.070020000     5.672000000     0.000000000   0  0  0  # cg1/C
  57    1   3   0.250000    5.526120000     2.836000000     0.000000000   0  0  0  # cg1/C
  58    1   3   0.250000    4.298120000     3.545000000     0.000000000   0  0  0  # cg1/C
  59    1   3   0.250000    4.298120000     4.963000000     0.000000000   0  0  0  # cg1/C
  60    1   2   0.000000    5.526120000     5.672000000     0.000000000   0  0  0  # ct/C
  61    1   4  -0.125000   -4.298080000    -5.672000000     0.650000000   0  0  0  # cge/C
  62    1   4  -0.125000   -4.298080000    -5.672000000    -0.650000000   0  0  0  # cge/C
  63    1   4  -0.125000   -5.526080000    -4.963000000     0.650000000   0  0  0  # cge/C
  64    1   4  -0.125000   -5.526080000    -4.963000000    -0.650000000   0  0  0  # cge/C
  65    1   4  -0.125000   -5.526080000    -3.545000000     0.650000000   0  0  0  # cge/C
  66    1   4  -0.125000   -5.526080000    -3.545000000    -0.650000000   0  0  0  # cge/C
  67    1   4  -0.125000   -4.298080000    -2.836000000     0.650000000   0  0  0  # cge/C
  68    1   4  -0.125000   -4.298080000    -2.836000000    -0.650000000   0  0  0  # cge/C
  69    1   4  -0.125000   -1.842080000    -5.672000000     0.650000000   0  0  0  # cge/C
  70    1   4  -0.125000   -1.842080000    -5.672000000    -0.650000000   0  0  0  # cge/C
  71    1   4  -0.125000   -3.070080000    -4.963000000     0.650000000   0  0  0  # cge/C
  72    1   4  -0.125000   -3.070080000    -4.963000000    -0.650000000   0  0  0  # cge/C
  73    1   4  -0.125000   -3.070080000    -3.545000000     0.650000000   0  0  0  # cge/C
  74    1   4  -0.125000   -3.070080000    -3.545000000    -0.650000000   0  0  0  # cge/C
  75    1   4  -0.125000   -1.842080000    -2.836000000     0.650000000   0  0  0  # cge/C
  76    1   4  -0.125000   -1.842080000    -2.836000000    -0.650000000   0  0  0  # cge/C
  77    1   4  -0.125000    0.614020000    -5.672000000     0.650000000   0  0  0  # cge/C
  78    1   4  -0.125000    0.614020000    -5.672000000    -0.650000000   0  0  0  # cge/C
  79    1   4  -0.125000   -0.613980000    -4.963000000     0.650000000   0  0  0  # cge/C
  80    1   4  -0.125000   -0.613980000    -4.963000000    -0.650000000   0  0  0  # cge/C
  81    1   4  -0.125000   -0.613980000    -3.545000000     0.650000000   0  0  0  # cge/C
  82    1   4  -0.125000   -0.613980000    -3.545000000    -0.650000000   0  0  0  # cge/C
  83    1   4  -0.125000    0.614020000    -2.836000000     0.650000000   0  0  0  # cge/C
  84    1   4  -0.125000    0.614020000    -2.836000000    -0.650000000   0  0  0  # cge/C
  85    1   4  -0.125000    3.070020000    -5.672000000     0.650000000   0  0  0  # cge/C
  86    1   4  -0.125000    3.070020000    -5.672000000    -0.650000000   0  0  0  # cge/C
  87    1   4  -0.125000    1.842020000    -4.963000000     0.650000000   0  0  0  # cge/C
  88    1   4  -0.125000    1.842020000    -4.963000000    -0.650000000   0  0  0  # cge/C
  89    1   4  -0.125000    1.842020000    -3.545000000     0.650000000   0  0  0  # cge/C
  90    1   4  -0.125000    1.842020000    -3.545000000    -0.650000000   0  0  0  # cge/C
  91    1   4  -0.125000    3.070020000    -2.836000000     0.650000000   0  0  0  # cge/C
  92    1   4  -0.125000    3.070020000    -2.836000000    -0.650000000   0  0  0  # cge/C
  93    1   4  -0.125000    4.298120000    -4.963000000     0.650000000   0  0  0  # cge/C
  94    1   4  -0.125000    4.298120000    -4.963000000    -0.650000000   0  0  0  # cge/C
  95    1   4  -0.125000    4.298120000    -3.545000000     0.650000000   0  0  0  # cge/C
  96    1   4  -0.125000    4.298120000    -3.545000000    -0.650000000   0  0  0  # cge/C
  97    1   4  -0.125000    5.526120000    -2.836000000     0.650000000   0  0  0  # cge/C
  98    1   4  -0.125000    5.526120000    -2.836000000    -0.650000000   0  0  0  # cge/C
  99    1   4  -0.125000   -4.298080000    -1.418000000     0.650000000   0  0  0  # cge/C
 100    1   4  -0.125000   -4.298080000    -1.418000000    -0.650000000   0  0  0  # cge/C
 101    1   4  -0.125000   -5.526080000    -0.709000000     0.650000000   0  0  0  # cge/C
 102    1   4  -0.125000   -5.526080000    -0.709000000    -0.650000000   0  0  0  # cge/C
 103    1   4  -0.125000   -5.526080000     0.709000000     0.650000000   0  0  0  # cge/C
 104    1   4  -0.125000   -5.526080000     0.709000000    -0.650000000   0  0  0  # cge/C
 105    1   4  -0.125000   -4.298080000     1.418000000     0.650000000   0  0  0  # cge/C
 106    1   4  -0.125000   -4.298080000     1.418000000    -0.650000000   0  0  0  # cge/C
 107    1   4  -0.125000   -1.842080000    -1.418000000     0.650000000   0  0  0  # cge/C
 108    1   4  -0.125000   -1.842080000    -1.418000000    -0.650000000   0  0  0  # cge/C
 109    1   4  -0.125000   -3.070080000    -0.709000000     0.650000000   0  0  0  # cge/C
 110    1   4  -0.125000   -3.070080000    -0.709000000    -0.650000000   0  0  0  # cge/C
 111    1   4  -0.125000   -3.070080000     0.709000000     0.650000000   0  0  0  # cge/C
 112    1   4  -0.125000   -3.070080000     0.709000000    -0.650000000   0  0  0  # cge/C
 113    1   4  -0.125000   -1.842080000     1.418000000     0.650000000   0  0  0  # cge/C
 114    1   4  -0.125000   -1.842080000     1.418000000    -0.650000000   0  0  0  # cge/C
 115    1   4  -0.125000    0.614020000    -1.418000000     0.650000000   0  0  0  # cge/C
 116    1   4  -0.125000    0.614020000    -1.418000000    -0.650000000   0  0  0  # cge/C
 117    1   4  -0.125000   -0.613980000    -0.709000000     0.650000000   0  0  0  # cge/C
 118    1   4  -0.125000   -0.613980000    -0.709000000    -0.650000000   0  0  0  # cge/C
 119    1   4  -0.125000   -0.613980000     0.709000000     0.650000000   0  0  0  # cge/C
 120    1   4  -0.125000   -0.613980000     0.709000000    -0.650000000   0  0  0  # cge/C
 121    1   4  -0.125000    0.614020000     1.418000000     0.650000000   0  0  0  # cge/C
 122    1   4  -0.125000    0.614020000     1.418000000    -0.650000000   0  0  0  # cge/C
 123    1   4  -0.125000    3.070020000    -1.418000000     0.650000000   0  0  0  # cge/C
 124    1   4  -0.125000    3.070020000    -1.418000000    -0.650000000   0  0  0  # cge/C
 125    1   4  -0.125000    1.842020000    -0.709000000     0.650000000   0  0  0  # cge/C
 126    1   4  -0.125000    1.842020000    -0.709000000    -0.650000000   0  0  0  # cge/C
 127    1   4  -0.125000    1.842020000     0.709000000     0.650000000   0  0  0  # cge/C
 128    1   4  -0.125000    1.842020000     0.709000000    -0.650000000   0  0  0  # cge/C
 129    1   4  -0.125000    3.070020000     1.418000000     0.650000000   0  0  0  # cge/C
 130    1   4  -0.125000    3.070020000     1.418000000    -0.650000000   0  0  0  # cge/C
 131    1   4  -0.125000    5.526120000    -1.418000000     0.650000000   0  0  0  # cge/C
 132    1   4  -0.125000    5.526120000    -1.418000000    -0.650000000   0  0  0  # cge/C
 133    1   4  -0.125000    4.298120000    -0.709000000     0.650000000   0  0  0  # cge/C
 134    1   4  -0.125000    4.298120000    -0.709000000    -0.650000000   0  0  0  # cge/C
 135    1   4  -0.125000    4.298120000     0.709000000     0.650000000   0  0  0  # cge/C
 136    1   4  -0.125000    4.298120000     0.709000000    -0.650000000   0  0  0  # cge/C
 137    1   4  -0.125000    5.526120000     1.418000000     0.650000000   0  0  0  # cge/C
 138    1   4  -0.125000    5.526120000     1.418000000    -0.650000000   0  0  0  # cge/C
 139    1   4  -0.125000   -4.298080000     2.836000000     0.650000000   0  0  0  # cge/C
 140    1   4  -0.125000   -4.298080000     2.836000000    -0.650000000   0  0  0  # cge/C
 141    1   4  -0.125000   -5.526080000     3.545000000     0.650000000   0  0  0  # cge/C
 142    1   4  -0.125000   -5.526080000     3.545000000    -0.650000000   0  0  0  # cge/C
 143    1   4  -0.125000   -5.526080000     4.963000000     0.650000000   0  0  0  # cge/C
 144    1   4  -0.125000   -5.526080000     4.963000000    -0.650000000   0  0  0  # cge/C
 145    1   4  -0.125000   -4.298080000     5.672000000     0.650000000   0  0  0  # cge/C
 146    1   4  -0.125000   -4.298080000     5.672000000    -0.650000000   0  0  0  # cge/C
 147    1   4  -0.125000   -1.842080000     2.836000000     0.650000000   0  0  0  # cge/C
 148    1   4  -0.125000   -1.842080000     2.836000000    -0.650000000   0  0  0  # cge/C
 149    1   4  -0.125000   -3.070080000     3.545000000     0.650000000   0  0  0  # cge/C
 150    1   4  -0.125000   -3.070080000     3.545000000    -0.650000000   0  0  0  # cge/C
 151    1   4  -0.125000   -3.070080000     4.963000000     0.650000000   0  0  0  # cge/C
 152    1   4  -0.125000   -3.070080000     4.963000000    -0.650000000   0  0  0  # cge/C
 153    1   4  -0.125000   -1.842080000     5.672000000     0.650000000   0  0  0  # cge/C
 154    1   4  -0.125000   -1.842080000     5.672000000    -0.650000000   0  0  0  # cge/C
 155    1   4  -0.125000    0.614020000     2.836000000     0.650000000   0  0  0  # cge/C
 156    1   4  -0.125000    0.614020000     2.836000000    -0.650000000   0  0  0  # cge/C
 157    1   4  -0.125000   -0.613980000     3.545000000     0.650000000   0  0  0  # cge/C
 158    1   4  -0.125000   -0.613980000     3.545000000    -0.650000000   0  0  0  # cge/C
 159    1   4  -0.125000   -0.613980000     4.963000000     0.650000000   0  0  0  # cge/C
 160    1   4  -0.125000   -0.613980000     4.963000000    -0.650000000   0  0  0  # cge/C
 161    1   4  -0.125000    0.614020000     5.672000000     0.650000000   0  0  0  # cge/C
 162    1   4  -0.125000    0.614020000     5.672000000    -0.650000000   0  0  0  # cge/C
 163    1   4  -0.125000    3.070020000     2.836000000     0.650000000   0  0  0  # cge/C
 164    1   4  -0.125000    3.070020000     2.836000000    -0.650000000   0  0  0  # cge/C
 165    1   4  -0.125000    1.842020000     3.545000000     0.650000000   0  0  0  # cge/C
 166    1   4  -0.125000    1.842020000     3.545000000    -0.650000000   0  0  0  # cge/C
 167    1   4  -0.125000    1.842020000     4.963000000     0.650000000   0  0  0  # cge/C
 168    1   4  -0.125000    1.842020000     4.963000000    -0.650000000   0  0  0  # cge/C
 169    1   4  -0.125000    3.070020000     5.672000000     0.650000000   0  0  0  # cge/C
 170    1   4  -0.125000    3.070020000     5.672000000    -0.650000000   0  0  0  # cge/C
 171    1   4  -0.125000    5.526120000     2.836000000     0.650000000   0  0  0  # cge/C
 172    1   4  -0.125000    5.526120000     2.836000000    -0.650000000   0  0  0  # cge/C
 173    1   4  -0.125000    4.298120000     3.545000000     0.650000000   0  0  0  # cge/C
 174    1   4  -0.125000    4.298120000     3.545000000    -0.650000000   0  0  0  # cge/C
 175    1   4  -0.125000    4.298120000     4.963000000     0.650000000   0  0  0  # cge/C
 176    1   4  -0.125000    4.298120000     4.963000000    -0.650000000   0  0  0  # cge/C

Bonds

1  1  1  2 
2  1  1  6 
3  1  2  3 
4  1  3  4 
5  1  4  7 
6  1  4  21
7  1  5  6 
8  1  5  10
9  1  6  7 
10 1  7  8 
11 1  8  11
12 1  8  25
13 1  9  10
14 1  9  14
15 1  10 11
16 1  11 12
17 1  12 15
18 1  12 29
19 1  13 14
20 1  13 18
21 1  14 15
22 1  15 16
23 1  16 19
24 1  16 33
25 2  18 17
26 1  18 19
27 1  19 20
28 1  20 37
29 1  21 22
30 1  21 26
31 1  22 23
32 1  23 24
33 1  24 27
34 1  24 41
35 1  25 26
36 1  25 30
37 1  26 27
38 1  27 28
39 1  28 31
40 1  28 45
41 1  29 30
42 1  29 34
43 1  30 31
44 1  31 32
45 1  32 35
46 1  32 49
47 1  33 34
48 1  33 38
49 1  34 35
50 1  35 36
51 1  36 39
52 1  36 53
53 1  37 38
54 1  38 39
55 1  39 40
56 1  40 57
57 1  41 42
58 1  41 46
59 1  42 43
60 1  43 44
61 1  44 47
62 1  45 46
63 1  45 50
64 1  46 47
65 1  47 48
66 1  48 51
67 1  49 50
68 1  49 54
69 1  50 51
70 1  51 52
71 1  52 55
72 1  53 54
73 1  53 58
74 1  54 55
75 1  55 56
76 1  56 59
77 1  57 58
78 1  58 59
79 2  59 60
80 3  1  61
81 3  1  62
82 3  2  63
83 3  2  64
84 3  3  65
85 3  3  66
86 3  4  67
87 3  4  68
88 3  5  69
89 3  5  70
90 3  6  71
91 3  6  72
92 3  7  73
93 3  7  74
94 3  8  75
95 3  8  76
96 3  9  77
97 3  9  78
98 3  10 79
99 3  10 80
100 3  11 81
101 3  11 82
102 3  12 83
103 3  12 84
104 3  13 85
105 3  13 86
106 3  14 87
107 3  14 88
108 3  15 89
109 3  15 90
110 3  16 91
111 3  16 92
112 3  18 93
113 3  18 94
114 3  19 95
115 3  19 96
116 3  20 97
117 3  20 98
118 3  21 99
119 3  21 100
120 3  22 101
121 3  22 102
122 3  23 103
123 3  23 104
124 3  24 105
125 3  24 106
126 3  25 107
127 3  25 108
128 3  26 109
129 3  26 110
130 3  27 111
131 3  27 112
132 3  28 113
133 3  28 114
134 3  29 115
135 3  29 116
136 3  30 117
137 3  30 118
138 3  31 119
139 3  31 120
140 3  32 121
141 3  32 122
142 3  33 123
143 3  33 124
144 3  34 125
145 3  34 126
146 3  35 127
147 3  35 128
148 3  36 129
149 3  36 130
150 3  37 131
151 3  37 132
152 3  38 133
153 3  38 134
154 3  39 135
155 3  39 136
156 3  40 137
157 3  40 138
158 3  41 139
159 3  41 140
160 3  42 141
161 3  42 142
162 3  43 143
163 3  43 144
164 3  44 145
165 3  44 146
166 3  45 147
167 3  45 148
168 3  46 149
169 3  46 150
170 3  47 151
171 3  47 152
172 3  48 153
173 3  48 154
174 3  49 155
175 3  49 156
176 3  50 157
177 3  50 158
178 3  51 159
179 3  51 160
180 3  52 161
181 3  52 162
182 3  53 163
183 3  53 164
184 3  54 165
185 3  54 166
186 3  55 167
187 3  55 168
188 3  56 169
189 3  56 170
190 3  57 171
191 3  57 172
192 3  58 173
193 3  58 174
194 3  59 175
195 3  59 176

Angles

1  1  2  1  6 
2  1  1  2  3 
3  1  2  3  4 
4  1  3  4  21
5  1  3  4  7 
6  1  7  4  21
7  1  6  5  10
8  1  5  6  7 
9  1  1  6  5 
10 1  1  6  7 
11 1  6  7  8 
12 1  4  7  8 
13 1  4  7  6 
14 1  11 8  25
15 1  7  8  11
16 1  7  8  25
17 1  10 9  14
18 1  5  10 11
19 1  9  10 11
20 1  5  10 9 
21 1  10 11 12
22 1  8  11 10
23 1  8  11 12
24 1  11 12 15
25 1  15 12 29
26 1  11 12 29
27 1  14 13 18
28 1  13 14 15
29 1  9  14 13
30 1  9  14 15
31 1  12 15 14
32 1  12 15 16
33 1  14 15 16
34 1  15 16 33
35 1  15 16 19
36 1  19 16 33
37 2  13 18 17
38 1  13 18 19
39 2  19 18 17
40 1  18 19 20
41 1  16 19 18
42 1  16 19 20
43 1  19 20 37
44 1  22 21 26
45 1  4  21 22
46 1  4  21 26
47 1  21 22 23
48 1  22 23 24
49 1  23 24 27
50 1  27 24 41
51 1  23 24 41
52 1  8  25 26
53 1  8  25 30
54 1  26 25 30
55 1  21 26 25
56 1  21 26 27
57 1  25 26 27
58 1  24 27 28
59 1  26 27 28
60 1  24 27 26
61 1  27 28 45
62 1  27 28 31
63 1  31 28 45
64 1  12 29 34
65 1  30 29 34
66 1  12 29 30
67 1  29 30 31
68 1  25 30 29
69 1  25 30 31
70 1  28 31 30
71 1  28 31 32
72 1  30 31 32
73 1  31 32 35
74 1  35 32 49
75 1  31 32 49
76 1  16 33 34
77 1  34 33 38
78 1  16 33 38
79 1  33 34 35
80 1  29 34 33
81 1  29 34 35
82 1  32 35 34
83 1  34 35 36
84 1  32 35 36
85 1  39 36 53
86 1  35 36 53
87 1  35 36 39
88 1  20 37 38
89 1  33 38 37
90 1  33 38 39
91 1  37 38 39
92 1  36 39 38
93 1  36 39 40
94 1  38 39 40
95 1  39 40 57
96 1  42 41 46
97 1  24 41 42
98 1  24 41 46
99 1  41 42 43
100 1  42 43 44
101 1  43 44 47
102 1  28 45 50
103 1  46 45 50
104 1  28 45 46
105 1  41 46 45
106 1  41 46 47
107 1  45 46 47
108 1  44 47 46
109 1  44 47 48
110 1  46 47 48
111 1  47 48 51
112 1  32 49 50
113 1  50 49 54
114 1  32 49 54
115 1  49 50 51
116 1  45 50 49
117 1  45 50 51
118 1  48 51 50
119 1  50 51 52
120 1  48 51 52
121 1  51 52 55
122 1  36 53 54
123 1  54 53 58
124 1  36 53 58
125 1  53 54 55
126 1  49 54 53
127 1  49 54 55
128 1  52 55 54
129 1  54 55 56
130 1  52 55 56
131 1  55 56 59
132 1  40 57 58
133 1  53 58 57
134 1  53 58 59
135 1  57 58 59
136 1  56 59 58
137 2  56 59 60
138 2  58 59 60
139 3  61 1  2 
140 3  61 1  6 
141 3  62 1  2 
142 3  62 1  6 
143 4  61 1  62
144 3  63 2  1 
145 3  63 2  3 
146 3  64 2  1 
147 3  64 2  3 
148 4  63 2  64
149 3  65 3  2 
150 3  65 3  4 
151 3  66 3  2 
152 3  66 3  4 
153 4  65 3  66
154 3  67 4  3 
155 3  67 4  7 
156 3  67 4  21
157 3  68 4  3 
158 3  68 4  7 
159 3  68 4  21
160 4  67 4  68
161 3  69 5  6 
162 3  69 5  10
163 3  70 5  6 
164 3  70 5  10
165 4  69 5  70
166 3  71 6  1 
167 3  71 6  5 
168 3  71 6  7 
169 3  72 6  1 
170 3  72 6  5 
171 3  72 6  7 
172 4  71 6  72
173 3  73 7  4 
174 3  73 7  6 
175 3  73 7  8 
176 3  74 7  4 
177 3  74 7  6 
178 3  74 7  8 
179 4  73 7  74
180 3  75 8  7 
181 3  75 8  11
182 3  75 8  25
183 3  76 8  7 
184 3  76 8  11
185 3  76 8  25
186 4  75 8  76
187 3  77 9  10
188 3  77 9  14
189 3  78 9  10
190 3  78 9  14
191 4  77 9  78
192 3  79 10 5 
193 3  79 10 9 
194 3  79 10 11
195 3  80 10 5 
196 3  80 10 9 
197 3  80 10 11
198 4  79 10 80
199 3  81 11 8 
200 3  81 11 10
201 3  81 11 12
202 3  82 11 8 
203 3  82 11 10
204 3  82 11 12
205 4  81 11 82
206 3  83 12 11
207 3  83 12 15
208 3  83 12 29
209 3  84 12 11
210 3  84 12 15
211 3  84 12 29
212 4  83 12 84
213 3  85 13 14
214 3  85 13 18
215 3  86 13 14
216 3  86 13 18
217 4  85 13 86
218 3  87 14 9 
219 3  87 14 13
220 3  87 14 15
221 3  88 14 9 
222 3  88 14 13
223 3  88 14 15
224 4  87 14 88
225 3  89 15 12
226 3  89 15 14
227 3  89 15 16
228 3  90 15 12
229 3  90 15 14
230 3  90 15 16
231 4  89 15 90
232 3  91 16 15
233 3  91 16 19
234 3  91 16 33
235 3  92 16 15
236 3  92 16 19
237 3  92 16 33
238 4  91 16 92
239 3  93 18 13
240 3  93 18 17
241 3  93 18 19
242 3  94 18 13
243 3  94 18 17
244 3  94 18 19
245 4  93 18 94
246 3  95 19 16
247 3  95 19 18
248 3  95 19 20
249 3  96 19 16
250 3  96 19 18
251 3  96 19 20
252 4  95 19 96
253 3  97 20 19
254 3  97 20 37
255 3  98 20 19
256 3  98 20 37
257 4  97 20 98
258 3  99 21 4 
259 3  99 21 22
260 3  99 21 26
261 3  100 21 4 
262 3  100 21 22
263 3  100 21 26
264 4  99 21 100
265 3  101 22 21
266 3  101 22 23
267 3  102 22 21
268 3  102 22 23
269 4  101 22 102
270 3  103 23 22
271 3  103 23 24
272 3  104 23 22
273 3  104 23 24
274 4  103 23 104
275 3  105 24 23
276 3  105 24 27
277 3  105 24 41
278 3  106 24 23
279 3  106 24 27
280 3  106 24 41
281 4  105 24 106
282 3  107 25 8 
283 3  107 25 26
284 3  107 25 30
285 3  108 25 8 
286 3  108 25 26
287 3  108 25 30
288 4  107 25 108
289 3  109 26 21
290 3  109 26 25
291 3  109 26 27
292 3  110 26 21
293 3  110 26 25
294 3  110 26 27
295 4  109 26 110
296 3  111 27 24
297 3  111 27 26
298 3  111 27 28
299 3  112 27 24
300 3  112 27 26
301 3  112 27 28
302 4  111 27 112
303 3  113 28 27
304 3  113 28 31
305 3  113 28 45
306 3  114 28 27
307 3  114 28 31
308 3  114 28 45
309 4  113 28 114
310 3  115 29 12
311 3  115 29 30
312 3  115 29 34
313 3  116 29 12
314 3  116 29 30
315 3  116 29 34
316 4  115 29 116
317 3  117 30 25
318 3  117 30 29
319 3  117 30 31
320 3  118 30 25
321 3  118 30 29
322 3  118 30 31
323 4  117 30 118
324 3  119 31 28
325 3  119 31 30
326 3  119 31 32
327 3  120 31 28
328 3  120 31 30
329 3  120 31 32
330 4  119 31 120
331 3  121 32 31
332 3  121 32 35
333 3  121 32 49
334 3  122 32 31
335 3  122 32 35
336 3  122 32 49
337 4  121 32 122
338 3  123 33 16
339 3  123 33 34
340 3  123 33 38
341 3  124 33 16
342 3  124 33 34
343 3  124 33 38
344 4  123 33 124
345 3  125 34 29
346 3  125 34 33
347 3  125 34 35
348 3  126 34 29
349 3  126 34 33
350 3  126 34 35
351 4  125 34 126
352 3  127 35 32
353 3  127 35 34
354 3  127 35 36
355 3  128 35 32
356 3  128 35 34
357 3  128 35 36
358 4  127 35 128
359 3  129 36 35
360 3  129 36 39
361 3  129 36 53
362 3  130 36 35
363 3  130 36 39
364 3  130 36 53
365 4  129 36 130
366 3  131 37 20
367 3  131 37 38
368 3  132 37 20
369 3  132 37 38
370 4  131 37 132
371 3  133 38 33
372 3  133 38 37
373 3  133 38 39
374 3  134 38 33
375 3  134 38 37
376 3  134 38 39
377 4  133 38 134
378 3  135 39 36
379 3  135 39 38
380 3  135 39 40
381 3  136 39 36