HEADER,  VMD_graphite.mol2  read w/ mol2SYBYL2lmp > atom_typing v1.9 / 5 January 2024 w/PCFF-IFF atom-types > all2lmp: v1.16 / 2 April 2024  Class: 2 > add_pi_electrons version: v1.5 / 1 April 2024 w/types2convert=[1]

6048 atoms
7056 bonds
20160 angles
12096 dihedrals
2016 impropers

3 atom types
2 bond types
3 angle types
1 dihedral types
1 improper types

-25.674466667 25.674533333 xlo xhi
-26.315000000 24.606000000 ylo yhi
-2.325000000 2.325000000 zlo zhi

Masses

 1   12.01115  # cp->cg1
 2   10.01115  # cg1
 3   1.00000   # cge

Pair Coeffs  # lj/class2/coul/long

 1        0.06200000      3.93200000 # cp->cg1
 2        0.06200000      3.93200000 # cg1
 3        0.00001000      0.00001000 # cge

Bond Coeffs  # class2

 1        1.42000000    480.00000000      0.00000000      0.00000000 # cg1        cg1   
 2        0.65000000    250.00000000      0.00000000      0.00000000 # cg1        cge   

Angle Coeffs  # class2

 1      120.00000000     90.00000000      0.00000000      0.00000000 # cg1       cg1        cg1   
 2       90.00000000     50.00000000      0.00000000      0.00000000 # cge       cg1        cg1   
 3      180.00000000     50.00000000      0.00000000      0.00000000 # cge       cg1        cge   

Dihedral Coeffs  # class2

 1        0.00000000      0.00000000      0.00000000      0.00000000      0.00000000      0.00000000 # cg1       cg1       cg1        cg1   

Improper Coeffs  # class2

 1        0.00000000      0.00000000 # cg1       cg1       cg1       cg1      nb==3   

BondBond Coeffs  # class2

 1        0.00000000      0.00000000      0.00000000 # cg1       cg1        cg1   
 2        0.00000000      0.00000000      0.00000000 # cge       cg1        cg1   
 3        0.00000000      0.00000000      0.00000000 # cge       cg1        cge   

BondAngle Coeffs  # class2

 1        0.00000000      0.00000000      0.00000000      0.00000000 # cg1       cg1        cg1   
 2        0.00000000      0.00000000      0.00000000      0.00000000 # cge       cg1        cg1   
 3        0.00000000      0.00000000      0.00000000      0.00000000 # cge       cg1        cge   

AngleAngleTorsion Coeffs  # class2

 1        0.00000000      0.00000000      0.00000000 # cg1       cg1       cg1        cg1   

EndBondTorsion Coeffs  # class2

 1        0.00000000      0.00000000      0.00000000      0.00000000      0.00000000      0.00000000      0.00000000      0.00000000 # cg1       cg1       cg1        cg1   

MiddleBondTorsion Coeffs  # class2

 1        0.00000000      0.00000000      0.00000000      0.00000000 # cg1       cg1       cg1        cg1   

BondBond13 Coeffs  # class2

 1        0.00000000      0.00000000      0.00000000 # cg1       cg1       cg1        cg1   

AngleTorsion Coeffs  # class2

 1        0.00000000      0.00000000      0.00000000      0.00000000      0.00000000      0.00000000      0.00000000      0.00000000 # cg1       cg1       cg1        cg1   

AngleAngle Coeffs  # class2

 1        0.00000000      0.00000000      0.00000000      0.00000000      0.00000000      0.00000000 # cg1       cg1       cg1       cg1      nb==3   

Atoms # full

  1     1   2   0.250000   -23.946466667   -25.524000000   -1.675000000   0  0  0  # cg1/C
  2     1   2   0.250000   -25.174466667   -24.815000000   -1.675000000   0  0  0  # cg1/C
  3     1   2   0.250000   -25.174466667   -23.397000000   -1.675000000   0  0  0  # cg1/C
  4     1   2   0.250000   -23.946466667   -22.688000000   -1.675000000   0  0  0  # cg1/C
  5     1   2   0.250000   -21.490466667   -25.524000000   -1.675000000   0  0  0  # cg1/C
  6     1   2   0.250000   -22.718466667   -24.815000000   -1.675000000   0  0  0  # cg1/C
  7     1   2   0.250000   -22.718466667   -23.397000000   -1.675000000   0  0  0  # cg1/C
  8     1   2   0.250000   -21.490466667   -22.688000000   -1.675000000   0  0  0  # cg1/C
  9     1   2   0.250000   -19.034366667   -25.524000000   -1.675000000   0  0  0  # cg1/C
  10    1   2   0.250000   -20.262366667   -24.815000000   -1.675000000   0  0  0  # cg1/C
  11    1   2   0.250000   -20.262366667   -23.397000000   -1.675000000   0  0  0  # cg1/C
  12    1   2   0.250000   -19.034366667   -22.688000000   -1.675000000   0  0  0  # cg1/C
  13    1   2   0.250000   -16.578366667   -25.524000000   -1.675000000   0  0  0  # cg1/C
  14    1   2   0.250000   -17.806366667   -24.815000000   -1.675000000   0  0  0  # cg1/C
  15    1   2   0.250000   -17.806366667   -23.397000000   -1.675000000   0  0  0  # cg1/C
  16    1   2   0.250000   -16.578366667   -22.688000000   -1.675000000   0  0  0  # cg1/C
  17    1   2   0.250000   -14.122266667   -25.524000000   -1.675000000   0  0  0  # cg1/C
  18    1   2   0.250000   -15.350266667   -24.815000000   -1.675000000   0  0  0  # cg1/C
  19    1   2   0.250000   -15.350266667   -23.397000000   -1.675000000   0  0  0  # cg1/C
  20    1   2   0.250000   -14.122266667   -22.688000000   -1.675000000   0  0  0  # cg1/C
  21    1   2   0.250000   -11.666266667   -25.524000000   -1.675000000   0  0  0  # cg1/C
  22    1   2   0.250000   -12.894266667   -24.815000000   -1.675000000   0  0  0  # cg1/C
  23    1   2   0.250000   -12.894266667   -23.397000000   -1.675000000   0  0  0  # cg1/C
  24    1   2   0.250000   -11.666266667   -22.688000000   -1.675000000   0  0  0  # cg1/C
  25    1   2   0.250000   -9.210166667    -25.524000000   -1.675000000   0  0  0  # cg1/C
  26    1   2   0.250000   -10.438166667   -24.815000000   -1.675000000   0  0  0  # cg1/C
  27    1   2   0.250000   -10.438166667   -23.397000000   -1.675000000   0  0  0  # cg1/C
  28    1   2   0.250000   -9.210166667    -22.688000000   -1.675000000   0  0  0  # cg1/C
  29    1   2   0.250000   -6.754166667    -25.524000000   -1.675000000   0  0  0  # cg1/C
  30    1   2   0.250000   -7.982166667    -24.815000000   -1.675000000   0  0  0  # cg1/C
  31    1   2   0.250000   -7.982166667    -23.397000000   -1.675000000   0  0  0  # cg1/C
  32    1   2   0.250000   -6.754166667    -22.688000000   -1.675000000   0  0  0  # cg1/C
  33    1   2   0.250000   -4.298066667    -25.524000000   -1.675000000   0  0  0  # cg1/C
  34    1   2   0.250000   -5.526066667    -24.815000000   -1.675000000   0  0  0  # cg1/C
  35    1   2   0.250000   -5.526066667    -23.397000000   -1.675000000   0  0  0  # cg1/C
  36    1   2   0.250000   -4.298066667    -22.688000000   -1.675000000   0  0  0  # cg1/C
  37    1   2   0.250000   -1.842066667    -25.524000000   -1.675000000   0  0  0  # cg1/C
  38    1   2   0.250000   -3.070066667    -24.815000000   -1.675000000   0  0  0  # cg1/C
  39    1   2   0.250000   -3.070066667    -23.397000000   -1.675000000   0  0  0  # cg1/C
  40    1   2   0.250000   -1.842066667    -22.688000000   -1.675000000   0  0  0  # cg1/C
  41    1   2   0.250000    0.614033333    -25.524000000   -1.675000000   0  0  0  # cg1/C
  42    1   2   0.250000   -0.613966667    -24.815000000   -1.675000000   0  0  0  # cg1/C
  43    1   2   0.250000   -0.613966667    -23.397000000   -1.675000000   0  0  0  # cg1/C
  44    1   2   0.250000    0.614033333    -22.688000000   -1.675000000   0  0  0  # cg1/C
  45    1   2   0.250000    3.070033333    -25.524000000   -1.675000000   0  0  0  # cg1/C
  46    1   2   0.250000    1.842033333    -24.815000000   -1.675000000   0  0  0  # cg1/C
  47    1   2   0.250000    1.842033333    -23.397000000   -1.675000000   0  0  0  # cg1/C
  48    1   2   0.250000    3.070033333    -22.688000000   -1.675000000   0  0  0  # cg1/C
  49    1   2   0.250000    5.526133333    -25.524000000   -1.675000000   0  0  0  # cg1/C
  50    1   2   0.250000    4.298133333    -24.815000000   -1.675000000   0  0  0  # cg1/C
  51    1   2   0.250000    4.298133333    -23.397000000   -1.675000000   0  0  0  # cg1/C
  52    1   2   0.250000    5.526133333    -22.688000000   -1.675000000   0  0  0  # cg1/C
  53    1   2   0.250000    7.982133333    -25.524000000   -1.675000000   0  0  0  # cg1/C
  54    1   2   0.250000    6.754133333    -24.815000000   -1.675000000   0  0  0  # cg1/C
  55    1   2   0.250000    6.754133333    -23.397000000   -1.675000000   0  0  0  # cg1/C
  56    1   2   0.250000    7.982133333    -22.688000000   -1.675000000   0  0  0  # cg1/C
  57    1   2   0.250000   10.438233333    -25.524000000   -1.675000000   0  0  0  # cg1/C
  58    1   2   0.250000    9.210133333    -24.815000000   -1.675000000   0  0  0  # cg1/C
  59    1   2   0.250000    9.210133333    -23.397000000   -1.675000000   0  0  0  # cg1/C
  60    1   2   0.250000   10.438233333    -22.688000000   -1.675000000   0  0  0  # cg1/C
  61    1   2   0.250000   12.894233333    -25.524000000   -1.675000000   0  0  0  # cg1/C
  62    1   2   0.250000   11.666233333    -24.815000000   -1.675000000   0  0  0  # cg1/C
  63    1   2   0.250000   11.666233333    -23.397000000   -1.675000000   0  0  0  # cg1/C
  64    1   2   0.250000   12.894233333    -22.688000000   -1.675000000   0  0  0  # cg1/C
  65    1   2   0.250000   15.350333333    -25.524000000   -1.675000000   0  0  0  # cg1/C
  66    1   2   0.250000   14.122233333    -24.815000000   -1.675000000   0  0  0  # cg1/C
  67    1   2   0.250000   14.122233333    -23.397000000   -1.675000000   0  0  0  # cg1/C
  68    1   2   0.250000   15.350333333    -22.688000000   -1.675000000   0  0  0  # cg1/C
  69    1   2   0.250000   17.806333333    -25.524000000   -1.675000000   0  0  0  # cg1/C
  70    1   2   0.250000   16.578333333    -24.815000000   -1.675000000   0  0  0  # cg1/C
  71    1   2   0.250000   16.578333333    -23.397000000   -1.675000000   0  0  0  # cg1/C
  72    1   2   0.250000   17.806333333    -22.688000000   -1.675000000   0  0  0  # cg1/C
  73    1   2   0.250000   20.262433333    -25.524000000   -1.675000000   0  0  0  # cg1/C
  74    1   2   0.250000   19.034333333    -24.815000000   -1.675000000   0  0  0  # cg1/C
  75    1   2   0.250000   19.034333333    -23.397000000   -1.675000000   0  0  0  # cg1/C
  76    1   2   0.250000   20.262433333    -22.688000000   -1.675000000   0  0  0  # cg1/C
  77    1   2   0.250000   22.718433333    -25.524000000   -1.675000000   0  0  0  # cg1/C
  78    1   2   0.250000   21.490433333    -24.815000000   -1.675000000   0  0  0  # cg1/C
  79    1   2   0.250000   21.490433333    -23.397000000   -1.675000000   0  0  0  # cg1/C
  80    1   2   0.250000   22.718433333    -22.688000000   -1.675000000   0  0  0  # cg1/C
  81    1   2   0.250000   25.174533333    -25.524000000   -1.675000000   0  0  0  # cg1/C
  82    1   2   0.250000   23.946433333    -24.815000000   -1.675000000   0  0  0  # cg1/C
  83    1   2   0.250000   23.946433333    -23.397000000   -1.675000000   0  0  0  # cg1/C
  84    1   2   0.250000   25.174533333    -22.688000000   -1.675000000   0  0  0  # cg1/C
  85    1   2   0.250000   -23.946466667   -21.270000000   -1.675000000   0  0  0  # cg1/C
  86    1   2   0.250000   -25.174466667   -20.561000000   -1.675000000   0  0  0  # cg1/C
  87    1   2   0.250000   -25.174466667   -19.143000000   -1.675000000   0  0  0  # cg1/C
  88    1   2   0.250000   -23.946466667   -18.434000000   -1.675000000   0  0  0  # cg1/C
  89    1   2   0.250000   -21.490466667   -21.270000000   -1.675000000   0  0  0  # cg1/C
  90    1   2   0.250000   -22.718466667   -20.561000000   -1.675000000   0  0  0  # cg1/C
  91    1   2   0.250000   -22.718466667   -19.143000000   -1.675000000   0  0  0  # cg1/C
  92    1   2   0.250000   -21.490466667   -18.434000000   -1.675000000   0  0  0  # cg1/C
  93    1   2   0.250000   -19.034366667   -21.270000000   -1.675000000   0  0  0  # cg1/C
  94    1   2   0.250000   -20.262366667   -20.561000000   -1.675000000   0  0  0  # cg1/C
  95    1   2   0.250000   -20.262366667   -19.143000000   -1.675000000   0  0  0  # cg1/C
  96    1   2   0.250000   -19.034366667   -18.434000000   -1.675000000   0  0  0  # cg1/C
  97    1   2   0.250000   -16.578366667   -21.270000000   -1.675000000   0  0  0  # cg1/C
  98    1   2   0.250000   -17.806366667   -20.561000000   -1.675000000   0  0  0  # cg1/C
  99    1   2   0.250000   -17.806366667   -19.143000000   -1.675000000   0  0  0  # cg1/C
 100    1   2   0.250000   -16.578366667   -18.434000000   -1.675000000   0  0  0  # cg1/C
 101    1   2   0.250000   -14.122266667   -21.270000000   -1.675000000   0  0  0  # cg1/C
 102    1   2   0.250000   -15.350266667   -20.561000000   -1.675000000   0  0  0  # cg1/C
 103    1   2   0.250000   -15.350266667   -19.143000000   -1.675000000   0  0  0  # cg1/C
 104    1   2   0.250000   -14.122266667   -18.434000000   -1.675000000   0  0  0  # cg1/C
 105    1   2   0.250000   -11.666266667   -21.270000000   -1.675000000   0  0  0  # cg1/C
 106    1   2   0.250000   -12.894266667   -20.561000000   -1.675000000   0  0  0  # cg1/C
 107    1   2   0.250000   -12.894266667   -19.143000000   -1.675000000   0  0  0  # cg1/C
 108    1   2   0.250000   -11.666266667   -18.434000000   -1.675000000   0  0  0  # cg1/C
 109    1   2   0.250000   -9.210166667    -21.270000000   -1.675000000   0  0  0  # cg1/C
 110    1   2   0.250000   -10.438166667   -20.561000000   -1.675000000   0  0  0  # cg1/C
 111    1   2   0.250000   -10.438166667   -19.143000000   -1.675000000   0  0  0  # cg1/C
 112    1   2   0.250000   -9.210166667    -18.434000000   -1.675000000   0  0  0  # cg1/C
 113    1   2   0.250000   -6.754166667    -21.270000000   -1.675000000   0  0  0  # cg1/C
 114    1   2   0.250000   -7.982166667    -20.561000000   -1.675000000   0  0  0  # cg1/C
 115    1   2   0.250000   -7.982166667    -19.143000000   -1.675000000   0  0  0  # cg1/C
 116    1   2   0.250000   -6.754166667    -18.434000000   -1.675000000   0  0  0  # cg1/C
 117    1   2   0.250000   -4.298066667    -21.270000000   -1.675000000   0  0  0  # cg1/C
 118    1   2   0.250000   -5.526066667    -20.561000000   -1.675000000   0  0  0  # cg1/C
 119    1   2   0.250000   -5.526066667    -19.143000000   -1.675000000   0  0  0  # cg1/C
 120    1   2   0.250000   -4.298066667    -18.434000000   -1.675000000   0  0  0  # cg1/C
 121    1   2   0.250000   -1.842066667    -21.270000000   -1.675000000   0  0  0  # cg1/C
 122    1   2   0.250000   -3.070066667    -20.561000000   -1.675000000   0  0  0  # cg1/C
 123    1   2   0.250000   -3.070066667    -19.143000000   -1.675000000   0  0  0  # cg1/C
 124    1   2   0.250000   -1.842066667    -18.434000000   -1.675000000   0  0  0  # cg1/C
 125    1   2   0.250000    0.614033333    -21.270000000   -1.675000000   0  0  0  # cg1/C
 126    1   2   0.250000   -0.613966667    -20.561000000   -1.675000000   0  0  0  # cg1/C
 127    1   2   0.250000   -0.613966667    -19.143000000   -1.675000000   0  0  0  # cg1/C
 128    1   2   0.250000    0.614033333    -18.434000000   -1.675000000   0  0  0  # cg1/C
 129    1   2   0.250000    3.070033333    -21.270000000   -1.675000000   0  0  0  # cg1/C
 130    1   2   0.250000    1.842033333    -20.561000000   -1.675000000   0  0  0  # cg1/C
 131    1   2   0.250000    1.842033333    -19.143000000   -1.675000000   0  0  0  # cg1/C
 132    1   2   0.250000    3.070033333    -18.434000000   -1.675000000   0  0  0  # cg1/C
 133    1   2   0.250000    5.526133333    -21.270000000   -1.675000000   0  0  0  # cg1/C
 134    1   2   0.250000    4.298133333    -20.561000000   -1.675000000   0  0  0  # cg1/C
 135    1   2   0.250000    4.298133333    -19.143000000   -1.675000000   0  0  0  # cg1/C
 136    1   2   0.250000    5.526133333    -18.434000000   -1.675000000   0  0  0  # cg1/C
 137    1   2   0.250000    7.982133333    -21.270000000   -1.675000000   0  0  0  # cg1/C
 138    1   2   0.250000    6.754133333    -20.561000000   -1.675000000   0  0  0  # cg1/C
 139    1   2   0.250000    6.754133333    -19.143000000   -1.675000000   0  0  0  # cg1/C
 140    1   2   0.250000    7.982133333    -18.434000000   -1.675000000   0  0  0  # cg1/C
 141    1   2   0.250000   10.438233333    -21.270000000   -1.675000000   0  0  0  # cg1/C
 142    1   2   0.250000    9.210133333    -20.561000000   -1.675000000   0  0  0  # cg1/C
 143    1   2   0.250000    9.210133333    -19.143000000   -1.675000000   0  0  0  # cg1/C
 144    1   2   0.250000   10.438233333    -18.434000000   -1.675000000   0  0  0  # cg1/C
 145    1   2   0.250000   12.894233333    -21.270000000   -1.675000000   0  0  0  # cg1/C
 146    1   2   0.250000   11.666233333    -20.561000000   -1.675000000   0  0  0  # cg1/C
 147    1   2   0.250000   11.666233333    -19.143000000   -1.675000000   0  0  0  # cg1/C
 148    1   2   0.250000   12.894233333    -18.434000000   -1.675000000   0  0  0  # cg1/C
 149    1   2   0.250000   15.350333333    -21.270000000   -1.675000000   0  0  0  # cg1/C
 150    1   2   0.250000   14.122233333    -20.561000000   -1.675000000   0  0  0  # cg1/C
 151    1   2   0.250000   14.122233333    -19.143000000   -1.675000000   0  0  0  # cg1/C
 152    1   2   0.250000   15.350333333    -18.434000000   -1.675000000   0  0  0  # cg1/C
 153    1   2   0.250000   17.806333333    -21.270000000   -1.675000000   0  0  0  # cg1/C
 154    1   2   0.250000   16.578333333    -20.561000000   -1.675000000   0  0  0  # cg1/C
 155    1   2   0.250000   16.578333333    -19.143000000   -1.675000000   0  0  0  # cg1/C
 156    1   2   0.250000   17.806333333    -18.434000000   -1.675000000   0  0  0  # cg1/C
 157    1   2   0.250000   20.262433333    -21.270000000   -1.675000000   0  0  0  # cg1/C
 158    1   2   0.250000   19.034333333    -20.561000000   -1.675000000   0  0  0  # cg1/C
 159    1   2   0.250000   19.034333333    -19.143000000   -1.675000000   0  0  0  # cg1/C
 160    1   2   0.250000   20.262433333    -18.434000000   -1.675000000   0  0  0  # cg1/C
 161    1   2   0.250000   22.718433333    -21.270000000   -1.675000000   0  0  0  # cg1/C
 162    1   2   0.250000   21.490433333    -20.561000000   -1.675000000   0  0  0  # cg1/C
 163    1   2   0.250000   21.490433333    -19.143000000   -1.675000000   0  0  0  # cg1/C
 164    1   2   0.250000   22.718433333    -18.434000000   -1.675000000   0  0  0  # cg1/C
 165    1   2   0.250000   25.174533333    -21.270000000   -1.675000000   0  0  0  # cg1/C
 166    1   2   0.250000   23.946433333    -20.561000000   -1.675000000   0  0  0  # cg1/C
 167    1   2   0.250000   23.946433333    -19.143000000   -1.675000000   0  0  0  # cg1/C
 168    1   2   0.250000   25.174533333    -18.434000000   -1.675000000   0  0  0  # cg1/C
 169    1   2   0.250000   -23.946466667   -17.016000000   -1.675000000   0  0  0  # cg1/C
 170    1   2   0.250000   -25.174466667   -16.307000000   -1.675000000   0  0  0  # cg1/C
 171    1   2   0.250000   -25.174466667   -14.889000000   -1.675000000   0  0  0  # cg1/C
 172    1   2   0.250000   -23.946466667   -14.180000000   -1.675000000   0  0  0  # cg1/C
 173    1   2   0.250000   -21.490466667   -17.016000000   -1.675000000   0  0  0  # cg1/C
 174    1   2   0.250000   -22.718466667   -16.307000000   -1.675000000   0  0  0  # cg1/C
 175    1   2   0.250000   -22.718466667   -14.889000000   -1.675000000   0  0  0  # cg1/C
 176    1   2   0.250000   -21.490466667   -14.180000000   -1.675000000   0  0  0  # cg1/C
 177    1   2   0.250000   -19.034366667   -17.016000000   -1.675000000   0  0  0  # cg1/C
 178    1   2   0.250000   -20.262366667   -16.307000000   -1.675000000   0  0  0  # cg1/C
 179    1   2   0.250000   -20.262366667   -14.889000000   -1.675000000   0  0  0  # cg1/C
 180    1   2   0.250000   -19.034366667   -14.180000000   -1.675000000   0  0  0  # cg1/C
 181    1   2   0.250000   -16.578366667   -17.016000000   -1.675000000   0  0  0  # cg1/C
 182    1   2   0.250000   -17.806366667   -16.307000000   -1.675000000   0  0  0  # cg1/C
 183    1   2   0.250000   -17.806366667   -14.889000000   -1.675000000   0  0  0  # cg1/C
 184    1   2   0.250000   -16.578366667   -14.180000000   -1.675000000   0  0  0  # cg1/C
 185    1   2   0.250000   -14.122266667   -17.016000000   -1.675000000   0  0  0  # cg1/C
 186    1   2   0.250000   -15.350266667   -16.307000000   -1.675000000   0  0  0  # cg1/C
 187    1   2   0.250000   -15.350266667   -14.889000000   -1.675000000   0  0  0  # cg1/C
 188    1   2   0.250000   -14.122266667   -14.180000000   -1.675000000   0  0  0  # cg1/C
 189    1   2   0.250000   -11.666266667   -17.016000000   -1.675000000   0  0  0  # cg1/C
 190    1   2   0.250000   -12.894266667   -16.307000000   -1.675000000   0  0  0  # cg1/C
 191    1   2   0.250000   -12.894266667   -14.889000000   -1.675000000   0  0  0  # cg1/C
 192    1   2   0.250000   -11.666266667   -14.180000000   -1.675000000   0  0  0  # cg1/C
 193    1   2   0.250000   -9.210166667    -17.016000000   -1.675000000   0  0  0  # cg1/C
 194    1   2   0.250000   -10.438166667   -16.307000000   -1.675000000   0  0  0  # cg1/C
 195    1   2   0.250000   -10.438166667   -14.889000000   -1.675000000   0  0  0  # cg1/C
 196    1   2   0.250000   -9.210166667    -14.180000000   -1.675000000   0  0  0  # cg1/C
 197    1   2   0.250000   -6.754166667    -17.016000000   -1.675000000   0  0  0  # cg1/C
 198    1   2   0.250000   -7.982166667    -16.307000000   -1.675000000   0  0  0  # cg1/C
 199    1   2   0.250000   -7.982166667    -14.889000000   -1.675000000   0  0  0  # cg1/C
 200    1   2   0.250000   -6.754166667    -14.180000000   -1.675000000   0  0  0  # cg1/C
 201    1   2   0.250000   -4.298066667    -17.016000000   -1.675000000   0  0  0  # cg1/C
 202    1   2   0.250000   -5.526066667    -16.307000000   -1.675000000   0  0  0  # cg1/C
 203    1   2   0.250000   -5.526066667    -14.889000000   -1.675000000   0  0  0  # cg1/C
 204    1   2   0.250000   -4.298066667    -14.180000000   -1.675000000   0  0  0  # cg1/C
 205    1   2   0.250000   -1.842066667    -17.016000000   -1.675000000   0  0  0  # cg1/C
 206    1   2   0.250000   -3.070066667    -16.307000000   -1.675000000   0  0  0  # cg1/C
 207    1   2   0.250000   -3.070066667    -14.889000000   -1.675000000   0  0  0  # cg1/C
 208    1   2   0.250000   -1.842066667    -14.180000000   -1.675000000   0  0  0  # cg1/C
 209    1   2   0.250000    0.614033333    -17.016000000   -1.675000000   0  0  0  # cg1/C
 210    1   2   0.250000   -0.613966667    -16.307000000   -1.675000000   0  0  0  # cg1/C
 211    1   2   0.250000   -0.613966667    -14.889000000   -1.675000000   0  0  0  # cg1/C
 212    1   2   0.250000    0.614033333    -14.180000000   -1.675000000   0  0  0  # cg1/C
 213    1   2   0.250000    3.070033333    -17.016000000   -1.675000000   0  0  0  # cg1/C
 214    1   2   0.250000    1.842033333    -16.307000000   -1.675000000   0  0  0  # cg1/C
 215    1   2   0.250000    1.842033333    -14.889000000   -1.675000000   0  0  0  # cg1/C
 216    1   2   0.250000    3.070033333    -14.180000000   -1.675000000   0  0  0  # cg1/C
 217    1   2   0.250000    5.526133333    -17.016000000   -1.675000000   0  0  0  # cg1/C
 218    1   2   0.250000    4.298133333    -16.307000000   -1.675000000   0  0  0  # cg1/C
 219    1   2   0.250000    4.298133333    -14.889000000   -1.675000000   0  0  0  # cg1/C
 220    1   2   0.250000    5.526133333    -14.180000000   -1.675000000   0  0  0  # cg1/C
 221    1   2   0.250000    7.982133333    -17.016000000   -1.675000000   0  0  0  # cg1/C
 222    1   2   0.250000    6.754133333    -16.307000000   -1.675000000   0  0  0  # cg1/C
 223    1   2   0.250000    6.754133333    -14.889000000   -1.675000000   0  0  0  # cg1/C
 224    1   2   0.250000    7.982133333    -14.180000000   -1.675000000   0  0  0  # cg1/C
 225    1   2   0.250000   10.438233333    -17.016000000   -1.675000000   0  0  0  # cg1/C
 226    1   2   0.250000    9.210133333    -16.307000000   -1.675000000   0  0  0  # cg1/C
 227    1   2   0.250000    9.210133333    -14.889000000   -1.675000000   0  0  0  # cg1/C
 228    1   2   0.250000   10.438233333    -14.180000000   -1.675000000   0  0  0  # cg1/C
 229    1   2   0.250000   12.894233333    -17.016000000   -1.675000000   0  0  0  # cg1/C
 230    1   2   0.250000   11.666233333    -16.307000000   -1.675000000   0  0  0  # cg1/C
 231    1   2   0.250000   11.666233333    -14.889000000   -1.675000000   0  0  0  # cg1/C
 232    1   2   0.250000   12.894233333    -14.180000000   -1.675000000   0  0  0  # cg1/C
 233    1   2   0.250000   15.350333333    -17.016000000   -1.675000000   0  0  0  # cg1/C
 234    1   2   0.250000   14.122233333    -16.307000000   -1.675000000   0  0  0  # cg1/C
 235    1   2   0.250000   14.122233333    -14.889000000   -1.675000000   0  0  0  # cg1/C
 236    1   2   0.250000   15.350333333    -14.180000000   -1.675000000   0  0  0  # cg1/C
 237    1   2   0.250000   17.806333333    -17.016000000   -1.675000000   0  0  0  # cg1/C
 238    1   2   0.250000   16.578333333    -16.307000000   -1.675000000   0  0  0  # cg1/C
 239    1   2   0.250000   16.578333333    -14.889000000   -1.675000000   0  0  0  # cg1/C
 240    1   2   0.250000   17.806333333    -14.180000000   -1.675000000   0  0  0  # cg1/C
 241    1   2   0.250000   20.262433333    -17.016000000   -1.675000000   0  0  0  # cg1/C
 242    1   2   0.250000   19.034333333    -16.307000000   -1.675000000   0  0  0  # cg1/C
 243    1   2   0.250000   19.034333333    -14.889000000   -1.675000000   0  0  0  # cg1/C
 244    1   2   0.250000   20.262433333    -14.180000000   -1.675000000   0  0  0  # cg1/C
 245    1   2   0.250000   22.718433333    -17.016000000   -1.675000000   0  0  0  # cg1/C
 246    1   2   0.250000   21.490433333    -16.307000000   -1.675000000   0  0  0  # cg1/C
 247    1   2   0.250000   21.490433333    -14.889000000   -1.675000000   0  0  0  # cg1/C
 248    1   2   0.250000   22.718433333    -14.180000000   -1.675000000   0  0  0  # cg1/C
 249    1   2   0.250000   25.174533333    -17.016000000   -1.675000000   0  0  0  # cg1/C
 250    1   2   0.250000   23.946433333    -16.307000000   -1.675000000   0  0  0  # cg1/C
 251    1   2   0.250000   23.946433333    -14.889000000   -1.675000000   0  0  0  # cg1/C
 252    1   2   0.250000   25.174533333    -14.180000000   -1.675000000   0  0  0  # cg1/C
 253    1   2   0.250000   -23.946466667   -12.762000000   -1.675000000   0  0  0  # cg1/C
 254    1   2   0.250000   -25.174466667   -12.053000000   -1.675000000   0  0  0  # cg1/C
 255    1   2   0.250000   -25.174466667   -10.635000000   -1.675000000   0  0  0  # cg1/C
 256    1   2   0.250000   -23.946466667   -9.926000000    -1.675000000   0  0  0  # cg1/C
 257    1   2   0.250000   -21.490466667   -12.762000000   -1.675000000   0  0  0  # cg1/C
 258    1   2   0.250000   -22.718466667   -12.053000000   -1.675000000   0  0  0  # cg1/C
 259    1   2   0.250000   -22.718466667   -10.635000000   -1.675000000   0  0  0  # cg1/C
 260    1   2   0.250000   -21.490466667   -9.926000000    -1.675000000   0  0  0  # cg1/C
 261    1   2   0.250000   -19.034366667   -12.762000000   -1.675000000   0  0  0  # cg1/C
 262    1   2   0.250000   -20.262366667   -12.053000000   -1.675000000   0  0  0  # cg1/C
 263    1   2   0.250000   -20.262366667   -10.635000000   -1.675000000   0  0  0  # cg1/C
 264    1   2   0.250000   -19.034366667   -9.926000000    -1.675000000   0  0  0  # cg1/C
 265    1   2   0.250000   -16.578366667   -12.762000000   -1.675000000   0  0  0  # cg1/C
 266    1   2   0.250000   -17.806366667   -12.053000000   -1.675000000   0  0  0  # cg1/C
 267    1   2   0.250000   -17.806366667   -10.635000000   -1.675000000   0  0  0  # cg1/C
 268    1   2   0.250000   -16.578366667   -9.926000000    -1.675000000   0  0  0  # cg1/C
 269    1   2   0.250000   -14.122266667   -12.762000000   -1.675000000   0  0  0  # cg1/C
 270    1   2   0.250000   -15.350266667   -12.053000000   -1.675000000   0  0  0  # cg1/C
 271    1   2   0.250000   -15.350266667   -10.635000000   -1.675000000   0  0  0  # cg1/C
 272    1   2   0.250000   -14.122266667   -9.926000000    -1.675000000   0  0  0  # cg1/C
 273    1   2   0.250000   -11.666266667   -12.762000000   -1.675000000   0  0  0  # cg1/C
 274    1   2   0.250000   -12.894266667   -12.053000000   -1.675000000   0  0  0  # cg1/C
 275    1   2   0.250000   -12.894266667   -10.635000000   -1.675000000   0  0  0  # cg1/C
 276    1   2   0.250000   -11.666266667   -9.926000000    -1.675000000   0  0  0  # cg1/C
 277    1   2   0.250000   -9.210166667    -12.762000000   -1.675000000   0  0  0  # cg1/C
 278    1   2   0.250000   -10.438166667   -12.053000000   -1.675000000   0  0  0  # cg1/C
 279    1   2   0.250000   -10.438166667   -10.635000000   -1.675000000   0  0  0  # cg1/C
 280    1   2   0.250000   -9.210166667    -9.926000000    -1.675000000   0  0  0  # cg1/C
 281    1   2   0.250000   -6.754166667    -12.762000000   -1.675000000   0  0  0  # cg1/C
 282    1   2   0.250000   -7.982166667    -12.053000000   -1.675000000   0  0  0  # cg1/C
 283    1   2   0.250000   -7.982166667    -10.635000000   -1.675000000   0  0  0  # cg1/C
 284    1   2   0.250000   -6.754166667    -9.926000000    -1.675000000   0  0  0  # cg1/C
 285    1   2   0.250000   -4.298066667    -12.762000000   -1.675000000   0  0  0  # cg1/C
 286    1   2   0.250000   -5.526066667    -12.053000000   -1.675000000   0  0  0  # cg1/C
 287    1   2   0.250000   -5.526066667    -10.635000000   -1.675000000   0  0  0  # cg1/C
 288    1   2   0.250000   -4.298066667    -9.926000000    -1.675000000   0  0  0  # cg1/C
 289    1   2   0.250000   -1.842066667    -12.762000000   -1.675000000   0  0  0  # cg1/C
 290    1   2   0.250000   -3.070066667    -12.053000000   -1.675000000   0  0  0  # cg1/C
 291    1   2   0.250000   -3.070066667    -10.635000000   -1.675000000   0  0  0  # cg1/C