LAMMPS data file via write_data, version 29 Sep 2021, timestep = 50000

1170 atoms
12 atom types
1230 bonds
20 bond types
2180 angles
40 angle types
2986 dihedrals
52 dihedral types
1080 impropers
31 improper types

-52.5 52.5 xlo xhi
-52.5 52.5 ylo yhi
-52.5 52.5 zlo zhi

Masses

 1   12.01115  # c1
 2   12.01115  # c2
 3   12.01115  # c3
 4   12.01115  # c3h
 5   12.01115  # cp
 6   1.00797   # hc
 7   1.00797   # hn
 8   1.00800   # ho2
 9   14.00670  # nn
10   15.99940  # o3e
11   15.99940  # oc
12   15.99940  # oh

Pair Coeffs # lj/class2/coul/long

1 0.054 4.01
2 0.054 4.01
3 0.054 3.9
4 0.054 4.01
5 0.064 4.01
6 0.02 2.995
7 0.013 1.098
8 0.013 1.11
9 0.065 4.07
10 0.24 3.535
11 0.24 3.535
12 0.24 3.535

Bond Coeffs # class2

1 1.53 299.67 -501.77 679.81
2 1.101 345 -691.89 844.6
3 1.42 400.395 -835.195 1313.01
4 1.101 345 -691.89 844.6
5 1.501 321.902 -521.821 572.163
6 1.53 299.67 -501.77 679.81
7 1.47 356.599 0 0
8 1.42 400.395 -835.195 1313.01
9 1.53 299.67 -501.77 679.81
10 1.101 345 -691.89 844.6
11 1.501 321.902 -521.821 572.163
12 1.42 400.395 -835.195 1313.01
13 1.101 345 -691.89 844.6
14 1.53 299.67 -501.77 679.81
15 1.3912 447.044 -784.535 886.167
16 1.3768 428.88 -738.235 1114.97
17 1.0982 372.825 -803.453 894.317
18 1.417 470.836 -627.618 1327.63
19 1.0012 465.861 -1066.24 1496.56
20 0.96 493.848 0 0

Angle Coeffs # class2

1 110.77 41.453 -10.604 5.129
2 114 50 0 0
3 111.27 54.5381 -8.3642 -13.0838
4 109 58.5 0 0
5 112.67 39.516 -7.443 -9.5583
6 110.77 41.453 -10.604 5.129
7 111.27 54.5381 -8.3642 -13.0838
8 110.77 41.453 -10.604 5.129
9 112.67 39.516 -7.443 -9.5583
10 110.77 41.453 -10.604 5.129
11 111.27 54.5381 -8.3642 -13.0838
12 120.05 44.7148 -22.7352 0
13 120 50 0 0
14 120 50 0 0
15 122 35 0 0
16 102.969 38.9739 -6.2595 -8.171
17 108.4 43.9594 -8.3924 -9.3379
18 110.77 41.453 -10.604 5.129
19 120.05 44.7148 -22.7352 0
20 110.77 41.453 -10.604 5.129
21 111.27 54.5381 -8.3642 -13.0838
22 110.77 41.453 -10.604 5.129
23 111.27 54.5381 -8.3642 -13.0838
24 104.5 35.7454 -10.0067 -6.2729
25 111 44.3234 -9.4454 0
26 111 44.3234 -9.4454 0
27 111 44.3234 -9.4454 0
28 118.9 61.0226 -34.9931 0
29 117.94 35.1558 -12.4682 0
30 121.458 61.0647 -21.6172 0
31 123.42 73.6781 -21.6787 0
32 111.873 40.8369 -15.6673 0
33 108.728 58.5446 -10.8088 -12.4006
34 107.66 39.641 -12.921 -2.4318
35 109.5 50 0 0
36 108.728 58.5446 -10.8088 -12.4006
37 107.66 39.641 -12.921 -2.4318
38 107.66 39.641 -12.921 -2.4318
39 108.728 58.5446 -10.8088 -12.4006
40 107.513 42.5182 -21.7566 -4.3372

BondBond Coeffs

1 3.3872 1.53 1.101
2 0 1.53 1.47
3 11.4318 1.53 1.42
4 0 1.42 0.96
5 0 1.53 1.53
6 3.3872 1.53 1.101
7 11.4318 1.53 1.42
8 3.3872 1.53 1.101
9 0 1.53 1.53
10 3.3872 1.53 1.101
11 11.4318 1.53 1.42
12 12.0676 1.501 1.417
13 0 1.47 1.47
14 0 1.47 1.3912
15 0 1.47 1.0012
16 0 1.42 1.3768
17 0 1.53 1.501
18 3.3872 1.53 1.101
19 12.0676 1.501 1.417
20 3.3872 1.53 1.101
21 11.4318 1.53 1.42
22 3.3872 1.53 1.101
23 11.4318 1.53 1.42
24 -7.1131 1.42 1.42
25 0 1.501 1.501
26 2.9168 1.501 1.101
27 2.9168 1.501 1.101
28 68.2856 1.417 1.417
29 1.0795 1.417 1.0982
30 46.9513 1.417 1.3912
31 48.4754 1.417 1.3768
32 4.5393 1.3912 1.0012
33 23.1979 1.101 1.42
34 5.3316 1.101 1.101
35 0 1.101 1.47
36 23.1979 1.101 1.42
37 5.3316 1.101 1.101
38 5.3316 1.101 1.101
39 23.1979 1.101 1.42
40 -9.9447 1.0012 1.0012

BondAngle Coeffs

1 20.754 11.421 1.53 1.101
2 0 0 1.53 1.47
3 2.6868 20.4033 1.53 1.42
4 0 0 1.42 0.96
5 8.016 8.016 1.53 1.53
6 20.754 11.421 1.53 1.101
7 2.6868 20.4033 1.53 1.42
8 20.754 11.421 1.53 1.101
9 8.016 8.016 1.53 1.53
10 20.754 11.421 1.53 1.101
11 2.6868 20.4033 1.53 1.42
12 47.0579 31.0771 1.501 1.417
13 0 0 1.47 1.47
14 0 0 1.47 1.3912
15 0 0 1.47 1.0012
16 0 0 1.42 1.3768
17 0 0 1.53 1.501
18 20.754 11.421 1.53 1.101
19 47.0579 31.0771 1.501 1.417
20 20.754 11.421 1.53 1.101
21 2.6868 20.4033 1.53 1.42
22 20.754 11.421 1.53 1.101
23 2.6868 20.4033 1.53 1.42
24 -2.8112 -2.8112 1.42 1.42
25 0 0 1.501 1.501
26 26.4608 11.7717 1.501 1.101
27 26.4608 11.7717 1.501 1.101
28 28.8708 28.8708 1.417 1.417
29 20.0033 24.2183 1.417 1.0982
30 39.404 73.6548 1.417 1.3912
31 58.479 107.681 1.417 1.3768
32 38.5704 16.5524 1.3912 1.0012
33 4.6189 55.327 1.101 1.42
34 18.103 18.103 1.101 1.101
35 0 0 1.101 1.47
36 4.6189 55.327 1.101 1.42
37 18.103 18.103 1.101 1.101
38 18.103 18.103 1.101 1.101
39 4.6189 55.327 1.101 1.42
40 17.1597 17.1597 1.0012 1.0012

Dihedral Coeffs # class2

1 0 0 0 0 0 0
2 0 0 0 0 0 0
3 0 0 0 0 0 0
4 0 0 0 0 0.13 0
5 0 0 0.0316 0 -0.1681 0
6 0 0 0 0 0.158 0
7 0.7137 0 0.266 0 -0.2545 0
8 0 0 0 0 0.13 0
9 0 0 0.0316 0 -0.1681 0
10 0.7137 0 0.266 0 -0.2545 0
11 -0.5203 0 -0.3028 0 -0.345 0
12 0 0 4.4072 0 0 0
13 0 0 1.559 0 0 0
14 0 0 3 0 0 0
15 -0.2802 0 -0.0678 0 -0.0122 0
16 0 0 4.4072 0 0 0
17 0 0 3 0 0 0
18 0 0 0 0 0.13 0
19 0 0 0.0316 0 -0.1681 0
20 0.7137 0 0.266 0 -0.2545 0
21 -0.0228 0 0.028 0 -0.1863 0
22 -0.2802 0 -0.0678 0 -0.0122 0
23 8.3667 0 1.1932 0 0 0
24 0 0 3.9661 0 0 0
25 0 0 5.3826 0 0 0
26 0 0 4.8498 0 0 0
27 0 0 2.25 0 0 0
28 0 0 1.219 0 0 0
29 0 0 1.5 0 0 0
30 -0.1432 0 0.0617 0 -0.1083 0
31 0 0 0 0 0.158 0
32 -0.1435 0 0.253 0 -0.0905 0
33 0 0 0 0 0.13 0
34 -0.1435 0 0.253 0 -0.0905 0
35 -0.1432 0 0.0617 0 -0.1083 0
36 -0.1432 0 0.0617 0 -0.1083 0
37 -0.1435 0 0.253 0 -0.0905 0
38 -0.2801 0 -0.0678 0 -0.0122 0
39 0 0 0 0 0 0
40 0 0 0 0 0 0
41 0 0 0 0 0 0
42 0.9513 0 0.1155 0 0.072 0
43 -0.2801 0 -0.0678 0 -0.0122 0
44 -0.1435 0 0.253 0 -0.0905 0
45 -0.1432 0 0.0617 0 -0.1083 0
46 -0.1435 0 0.253 0 -0.0905 0
47 0.5302 0 0 0 -0.3966 0
48 0 0 1.8769 0 0 0
49 0 0 1.7234 0 0 0
50 0 0 0 0 0.158 0
51 -0.182 0 -0.1084 0 -0.7047 0
52 -0.182 0 -0.1084 0 -0.7047 0

AngleAngleTorsion Coeffs

1 0 114 120
2 0 114 120
3 0 114 122
4 0 111.27 102.969
5 -16.164 112.67 110.77
6 0 112.67 114
7 -29.042 112.67 111.27
8 0 111.27 109
9 -16.164 112.67 110.77
10 -29.042 112.67 111.27
11 -19.0059 111.27 104.5
12 -14.4097 120.05 118.9
13 4.4444 120.05 117.94
14 0 120.05 121.458
15 0 108.4 120.05
16 -14.4097 120.05 118.9
17 0 120.05 121.458
18 0 111.27 102.969
19 -16.164 112.67 110.77
20 -29.042 112.67 111.27
21 0 108.4 110.77
22 0 111 120.05
23 0 118.9 118.9
24 -4.8141 118.9 117.94
25 0 118.9 121.458
26 -21.0247 118.9 123.42
27 0 121.458 120
28 -7.1755 121.458 111.872
29 0 123.42 102.969
30 -12.564 110.77 110.77
31 0 110.77 114
32 -20.2006 110.77 111.27
33 0 108.728 109
34 -20.2006 110.77 111.27
35 -12.564 110.77 110.77
36 -12.564 110.77 110.77
37 -20.2006 110.77 111.27
38 -5.8888 111 120.05
39 0 109.5 120
40 0 109.5 120
41 0 109.5 122
42 0 108.728 102.969
43 -5.8888 111 120.05
44 -20.2006 110.77 111.27
45 -12.564 110.77 110.77
46 -20.2006 110.77 111.27
47 -16.4438 108.728 104.5
48 0.3598 117.94 117.94
49 4.2296 117.94 123.42
50 0 114 111.27
51 -14.0484 111.27 111.27
52 -14.0484 111.27 111.27

EndBondTorsion Coeffs

1 0 0 0 0 0 0 1.53 1.47
2 0 0 0 0 0 0 1.53 1.3912
3 0 0 0 0 0 0 1.53 1.0012
4 0 0 0 0 0 0 1.53 1.3768
5 0.2486 0.2422 -0.0925 0.0814 0.0591 0.2219 1.53 1.101
6 0 0 0 0 0 0 1.53 1.47
7 -0.319 0.4411 -0.7174 1.1538 0.8409 -0.9138 1.53 1.42
8 0 0 0 0 0 0 1.53 0.96
9 0.2486 0.2422 -0.0925 0.0814 0.0591 0.2219 1.53 1.101
10 -0.319 0.4411 -0.7174 1.1538 0.8409 -0.9138 1.53 1.42
11 -0.2456 1.0517 -0.7795 0.4741 1.2635 0.5576 1.53 1.42
12 0 0.2421 0 0 -0.6918 0 1.501 1.417
13 0 -1.797 0 0 -0.4879 0 1.501 1.0982
14 0 0 0 0 0 0 1.501 1.3912
15 0 0 0 0 0 0 1.53 1.417
16 0 0.2421 0 0 -0.6918 0 1.501 1.417
17 0 0 0 0 0 0 1.501 1.3912
18 0 0 0 0 0 0 1.53 1.3768
19 0.2486 0.2422 -0.0925 0.0814 0.0591 0.2219 1.53 1.101
20 -0.319 0.4411 -0.7174 1.1538 0.8409 -0.9138 1.53 1.42
21 0 0 0 0 0 0 1.501 1.101
22 0 0 0 0 0 0 1.501 1.417
23 -0.1185 6.3204 0 -0.1185 6.3204 0 1.417 1.417
24 0 -6.8958 0 0 -0.4669 0 1.417 1.0982
25 0 -6.5404 0 0 -7.3477 0 1.417 1.3912
26 0 0.2655 0 0 4.8905 0 1.417 1.3768
27 0 0 0 0 0 0 1.417 1.47
28 0 -3.7281 0 0 0.2849 0 1.417 1.0012
29 0 0 0 0 0 0 1.417 1.42
30 0.213 0.312 0.0777 0.213 0.312 0.0777 1.101 1.101
31 0 0 0 0 0 0 1.101 1.47
32 0.9681 0.9551 0.0436 0.5903 0.6669 0.8584 1.101 1.42
33 0 0 0 0 0 0 1.101 0.96
34 0.9681 0.9551 0.0436 0.5903 0.6669 0.8584 1.101 1.42
35 0.213 0.312 0.0777 0.213 0.312 0.0777 1.101 1.101
36 0.213 0.312 0.0777 0.213 0.312 0.0777 1.101 1.101
37 0.9681 0.9551 0.0436 0.5903 0.6669 0.8584 1.101 1.42
38 1.3997 0.7756 0 -0.5835 1.122 0.3978 1.101 1.417
39 0 0 0 0 0 0 1.101 1.47
40 0 0 0 0 0 0 1.101 1.3912
41 0 0 0 0 0 0 1.101 1.0012
42 0 0 0 0 0 0 1.101 1.3768
43 1.3997 0.7756 0 -0.5835 1.122 0.3978 1.101 1.417
44 0.9681 0.9551 0.0436 0.5903 0.6669 0.8584 1.101 1.42
45 0.213 0.312 0.0777 0.213 0.312 0.0777 1.101 1.101
46 0.9681 0.9551 0.0436 0.5903 0.6669 0.8584 1.101 1.42
47 -0.6054 1.3339 0.9648 -0.162 0.1564 -1.1408 1.101 1.42
48 0 -0.689 0 0 -0.689 0 1.0982 1.0982
49 0 -1.5867 0 0 4.2641 0 1.0982 1.3768
50 0 0 0 0 0 0 1.47 1.42
51 1.0165 0.7553 -0.4609 1.0165 0.7553 -0.4609 1.42 1.42
52 1.0165 0.7553 -0.4609 1.0165 0.7553 -0.4609 1.42 1.42

MiddleBondTorsion Coeffs

1 0 0 0 1.47
2 0 0 0 1.47
3 0 0 0 1.47
4 0 0 0 1.42
5 -14.879 -3.6581 -0.3138 1.53
6 0 0 0 1.53
7 -21.8842 -7.6764 -0.6868 1.53
8 0 0 0 1.42
9 -14.879 -3.6581 -0.3138 1.53
10 -21.8842 -7.6764 -0.6868 1.53
11 -5.9288 -2.7007 -0.3175 1.42
12 0 9.1792 0 1.417
13 0 3.9421 0 1.417
14 0 0 0 1.417
15 0 0 0 1.501
16 0 9.1792 0 1.417
17 0 0 0 1.417
18 0 0 0 1.42
19 -14.879 -3.6581 -0.3138 1.53
20 -21.8842 -7.6764 -0.6868 1.53
21 0 0 0 1.53
22 0 0 0 1.501
23 27.5989 -2.312 0 1.417
24 0 -1.1521 0 1.417
25 0 -0.5693 0 1.417
26 0 4.8255 0 1.417
27 0 0 0 1.3912
28 0 3.2085 0 1.3912
29 0 0 0 1.3768
30 -14.261 -0.5322 -0.4864 1.53
31 0 0 0 1.53
32 -16.7975 -1.2296 -0.275 1.53
33 0 0 0 1.42
34 -16.7975 -1.2296 -0.275 1.53
35 -14.261 -0.5322 -0.4864 1.53
36 -14.261 -0.5322 -0.4864 1.53
37 -16.7975 -1.2296 -0.275 1.53
38 -5.5679 1.4083 0.301 1.501
39 0 0 0 1.47
40 0 0 0 1.47
41 0 0 0 1.47
42 0 0 0 1.42
43 -5.5679 1.4083 0.301 1.501
44 -16.7975 -1.2296 -0.275 1.53
45 -14.261 -0.5322 -0.4864 1.53
46 -16.7975 -1.2296 -0.275 1.53
47 -6.8007 -4.6546 -1.4101 1.42
48 0 4.8228 0 1.417
49 0 5.5432 0 1.417
50 0 0 0 1.53
51 -17.2585 -3.6157 -0.8364 1.53
52 -17.2585 -3.6157 -0.8364 1.53

BondBond13 Coeffs

1 0 1.53 1.47
2 0 1.53 1.3912
3 0 1.53 1.0012
4 0 1.53 1.3768
5 0 1.53 1.101
6 0 1.53 1.47
7 0 1.53 1.42
8 0 1.53 0.96
9 0 1.53 1.101
10 0 1.53 1.42
11 0 1.53 1.42
12 2.5085 1.501 1.417
13 0.8743 1.501 1.0982
14 0 1.501 1.3912
15 0 1.53 1.417
16 2.5085 1.501 1.417
17 0 1.501 1.3912
18 0 1.53 1.3768
19 0 1.53 1.101
20 0 1.53 1.42
21 0 1.501 1.101
22 0 1.501 1.417
23 53 1.417 1.417
24 -6.2741 1.417 1.0982
25 -9.7999 1.417 1.3912
26 -2.2436 1.417 1.3768
27 0 1.417 1.47
28 4.2366 1.417 1.0012
29 0 1.417 1.42
30 0 1.101 1.101
31 0 1.101 1.47
32 0 1.101 1.42
33 0 1.101 0.96
34 0 1.101 1.42
35 0 1.101 1.101
36 0 1.101 1.101
37 0 1.101 1.42
38 -3.4826 1.101 1.417
39 0 1.101 1.47
40 0 1.101 1.3912
41 0 1.101 1.0012
42 0 1.101 1.3768
43 -3.4826 1.101 1.417
44 0 1.101 1.42
45 0 1.101 1.101
46 0 1.101 1.42
47 0 1.101 1.42
48 -1.7077 1.0982 1.0982
49 2.0517 1.0982 1.3768
50 0 1.47 1.42
51 0 1.42 1.42
52 0 1.42 1.42

AngleTorsion Coeffs

1 0 0 0 0 0 0 114 120
2 0 0 0 0 0 0 114 120
3 0 0 0 0 0 0 114 122
4 0 0 0 0 0 0 111.27 102.969
5 -0.2454 0 -0.1136 0.3113 0.4516 -0.1988 112.67 110.77
6 0 0 0 0 0 0 112.67 114
7 0.5623 -0.3041 -0.4015 0.9672 -0.7566 -1.2331 112.67 111.27
8 0 0 0 0 0 0 111.27 109
9 -0.2454 0 -0.1136 0.3113 0.4516 -0.1988 112.67 110.77
10 0.5623 -0.3041 -0.4015 0.9672 -0.7566 -1.2331 112.67 111.27
11 -2.7466 1.4877 -0.8955 0.5676 0.945 0.0703 111.27 104.5
12 0 -4.4683 0 0 3.8987 0 120.05 118.9
13 0 -0.1242 0 0 3.4601 0 120.05 117.94
14 0 0 0 0 0 0 120.05 121.458
15 0 0 0 0 0 0 108.4 120.05
16 0 -4.4683 0 0 3.8987 0 120.05 118.9
17 0 0 0 0 0 0 120.05 121.458
18 0 0 0 0 0 0 111.27 102.969
19 -0.2454 0 -0.1136 0.3113 0.4516 -0.1988 112.67 110.77
20 0.5623 -0.3041 -0.4015 0.9672 -0.7566 -1.2331 112.67 111.27
21 0 0 0 0 0 0 108.4 110.77
22 0 0 0 0 0 0 111 120.05
23 1.9767 1.0239 0 1.9767 1.0239 0 118.9 118.9
24 0 2.5014 0 0 2.7147 0 118.9 117.94
25 0 9.0901 0 0 -6.0882 0 118.9 121.458
26 0 10.0155 0 0 1.7404 0 118.9 123.42
27 0 0 0 0 0 0 121.458 120
28 0 1.2616 0 0 0.7744 0 121.458 111.872
29 0 0 0 0 0 0 123.42 102.969
30 -0.8085 0.5569 -0.2466 -0.8085 0.5569 -0.2466 110.77 110.77
31 0 0 0 0 0 0 110.77 114
32 2.3668 2.492 -1.0122 -0.1892 0.4918 0.7273 110.77 111.27
33 0 0 0 0 0 0 108.728 109
34 2.3668 2.492 -1.0122 -0.1892 0.4918 0.7273 110.77 111.27
35 -0.8085 0.5569 -0.2466 -0.8085 0.5569 -0.2466 110.77 110.77
36 -0.8085 0.5569 -0.2466 -0.8085 0.5569 -0.2466 110.77 110.77
37 2.3668 2.492 -1.0122 -0.1892 0.4918 0.7273 110.77 111.27
38 4.6266 0.1632 0.0461 0.2251 0.6548 0.1237 111 120.05
39 0 0 0 0 0 0 109.5 120
40 0 0 0 0 0 0 109.5 120
41 0 0 0 0 0 0 109.5 122
42 0 0 0 0 0 0 108.728 102.969
43 4.6266 0.1632 0.0461 0.2251 0.6548 0.1237 111 120.05
44 2.3668 2.492 -1.0122 -0.1892 0.4918 0.7273 110.77 111.27
45 -0.8085 0.5569 -0.2466 -0.8085 0.5569 -0.2466 110.77 110.77
46 2.3668 2.492 -1.0122 -0.1892 0.4918 0.7273 110.77 111.27
47 -1.8234 1.6393 0.5144 -0.7777 0.434 -0.6653 108.728 104.5
48 0 2.4501 0 0 2.4501 0 117.94 117.94
49 0 1.8729 0 0 2.5706 0 117.94 123.42
50 0 0 0 0 0 0 114 111.27
51 0.5511 0.9737 -0.6673 0.5511 0.9737 -0.6673 111.27 111.27
52 0.5511 0.9737 -0.6673 0.5511 0.9737 -0.6673 111.27 111.27

Improper Coeffs # class2

1 7.8153 0
2 0.1 0
3 0.1 0
4 7.8153 0
5 4.8912 0
6 10.7855 0
7 13.0421 0
8 0 0
9 0 0
10 0 0
11 0 0
12 0 0
13 0 0
14 0 0
15 0 0
16 0 0
17 0 0
18 0 0
19 0 0
20 0 0
21 0 0
22 0 0
23 0 0
24 0 0
25 0 0
26 0 0
27 0 0
28 0 0
29 0 0
30 0 0
31 0 0

AngleAngle Coeffs

1 0 0 0 120.05 118.9 120.05
2 0 0 0 120 120 120
3 0 0 0 120 111.872 122
4 0 0 0 120.05 118.9 120.05
5 0 0 0 118.9 117.94 117.94
6 0 0 0 118.9 121.458 121.458
7 0 0 0 118.9 123.42 123.42
8 0 0 0 111.872 107.513 111.872
9 0.2738 -0.4825 0.2738 110.77 110.77 107.66
10 0 0 0 110.77 109.5 114
11 3.9177 2.5926 0.1689 110.77 111.27 108.728
12 -1.3199 -1.3199 0.1184 112.67 110.77 110.77
13 -0.833 -0.833 -3.5744 112.67 111.27 111.27
14 3.9177 2.5926 0.1689 110.77 111.27 108.728
15 0.2738 -0.4825 0.2738 110.77 110.77 107.66
16 -1.3199 -1.3199 0.1184 112.67 110.77 110.77
17 -0.833 -0.833 -3.5744 112.67 111.27 111.27
18 3.9177 2.5926 0.1689 110.77 111.27 108.728
19 2.0403 -1.8202 1.0827 108.4 110.77 111
20 0.2738 -0.4825 0.2738 110.77 110.77 107.66
21 0.2738 -0.4825 0.2738 110.77 110.77 107.66
22 3.9177 2.5926 0.1689 110.77 111.27 108.728
23 0.2738 -0.4825 0.2738 110.77 110.77 107.66
24 3.9177 2.5926 0.1689 110.77 111.27 108.728
25 0 0 0 111 111 111
26 2.3794 3.0118 2.3794 111 111 107.66
27 2.3794 3.0118 2.3794 111 111 107.66
28 0 0 0 107.66 109.5 109.5
29 2.4259 2.4259 2.1283 107.66 108.728 108.728
30 -0.3157 -0.3157 -0.3157 107.66 107.66 107.66
31 2.4259 2.4259 2.1283 107.66 108.728 108.728

Atoms # full

1107 4 12 -0.133 -50.87149802966692 -47.08275107447272 -48.44814784499492 1 0 1
382 4 8 0 -50.81207661615861 -47.59881070323776 -47.633740979116816 1 1 0
1106 4 2 0.1048 -51.87016760937273 -47.947630812146066 -50.47039808399445 1 0 1
1125 4 6 0.053 -50.448738996180815 -48.985809600318035 -49.012241484638515 1 0 1
1105 4 1 0.08 -50.645420855820674 -47.962558495912575 -49.556127793368006 1 0 1
1126 4 6 0.053 -52.03534532756414 -46.92324405334286 -50.731947798006125 1 0 1
1124 4 6 0.053 -48.40661487674835 -47.54846277206462 -49.66949454066508 1 0 1
1104 4 2 0.027 -49.37726034978736 -47.61819294023852 -50.31880021920609 1 0 1
1103 4 11 -0.1595 -49.51399661588225 -46.48815339098355 -51.04538760692213 1 0 1
1123 4 6 0.053 -49.27470582392302 -48.48709339428226 -51.00503962383469 1 0 1
364 4 9 -0.5422 -51.69449763937838 -48.82496285566747 -51.63756768935731 1 1 0
378 4 6 0.053 -52.119178664944066 -50.25468719595037 -49.6319916278898 1 1 0
1100 4 5 0.0265 -49.501891629767634 -46.37357704972334 -52.463773406700426 1 0 1
1121 4 6 0.1268 -50.6850590614516 -44.65665613849636 -52.033570510483244 1 0 1
693 13 6 0.053 -15.732926024630093 -16.834971489346767 -51.935718328818446 0 -1 1
697 13 6 0.1268 -17.87109503048465 -15.494247499965153 -51.584590201378376 0 -1 1
689 13 6 0.1268 -14.749169586590542 -15.140182933211827 -50.63860865052275 0 -1 1
696 13 6 0.1268 -19.856236169904612 -14.637571247146349 -52.485762911168585 0 -1 1
685 13 6 0.053 -11.311682309674712 -9.596930905354833 -51.63113304713503 0 -1 1
662 13 4 0.08 -12.157565700835837 -9.459348367988298 -50.89381782767852 0 -1 1
687 13 6 0.053 -14.161270304550678 -10.03785779649882 -51.339393291503484 0 -1 1
666 13 5 -0.1268 -13.906003295003355 -13.358990232347653 -51.28381959603339 0 -1 1
664 13 11 -0.1595 -12.865542411733937 -11.347641516969022 -52.197893341612335 0 -1 1
665 13 5 0.0265 -13.65666296936743 -12.552875280170605 -52.37411208439835 0 -1 1
667 13 5 -0.1268 -14.524681849837922 -14.586762132643099 -51.485377116594144 0 -1 1
688 13 6 0.1268 -13.600342609148232 -13.253040639452104 -50.21792981102638 0 -1 1
686 13 6 0.053 -13.489594858411913 -11.2247827862956 -50.171232016512576 0 -1 1
663 13 2 0.027 -13.215637567679828 -10.536693885527487 -51.01856119020226 0 -1 1
684 13 6 0.053 -12.79225727150441 -8.61182069165538 -48.859311062482305 0 -1 1
661 13 4 0.027 -12.077719520884157 -8.498909324611896 -49.70878970045303 0 -1 1
683 13 6 0.053 -11.155666864256888 -7.949223908546679 -49.4968562032051 0 -1 1
660 13 10 -0.266 -12.756849712287313 -8.162542588025312 -50.90348503929409 0 -1 1
16 1 6 0.053 -24.746123182329626 -25.59646476945574 -38.1316092616245 0 0 0
15 1 6 0.053 -23.3862724854755 -24.612532032693206 -38.735466952045165 0 0 0
7 1 2 -0.106 -24.031928637716707 -24.829659573382436 -37.831599785827635 0 0 0
18 1 6 0.053 -25.459540156437626 -23.162304940420707 -38.19169422056392 0 0 0
565 1 12 -0.133 -21.605894046498467 -21.904421555741955 -38.92328570810785 0 0 1
563 1 1 0.08 -21.216824707676494 -21.20058387876878 -37.70079310546271 0 0 1
29 1 8 0 -22.370541533801724 -21.45954128419768 -39.305397130942474 0 0 0
582 1 6 0.053 -19.13051975509546 -20.719020789702565 -38.14496823644817 0 0 1
581 1 6 0.053 -20.340515350260418 -19.8236742235096 -39.016772457522784 0 0 1
562 1 2 0.027 -20.09669107314338 -20.21984047540807 -38.020587688828776 0 0 1
22 1 6 0.053 -21.45693947431133 -30.721950565216407 -35.88765593497673 0 0 0
21 1 6 0.053 -22.96708030306662 -29.0183776585505 -36.667817469359534 0 0 0
20 1 6 0.053 -23.133425395820534 -29.10166834234954 -34.948182744216744 0 0 0
17 1 6 0.053 -23.917320726267757 -22.7246008943504 -37.398824436662785 0 0 0
8 1 3 -0.159 -24.68132768583072 -23.479998156984518 -37.44388094499919 0 0 0
19 1 6 0.053 -25.220502654033528 -23.477889730093565 -36.53869392782758 0 0 0
28 1 7 0.2487 -23.016232572457824 -22.74385772371903 -36.465098507750945 0 0 0
4 1 5 -0.1268 -23.1843498074799 -26.626591227818263 -36.453156775036604 0 0 0
14 1 6 0.1268 -23.770550441261584 -27.181430819919076 -37.213957690796015 0 0 0
5 1 5 0 -23.166431538332127 -25.286999566310804 -36.6270552670931 0 0 0
23 1 6 0.053 -20.770778570990455 -29.436297695993645 -36.82078031271475 0 0 0
24 1 6 0.053 -20.36820553647611 -29.53575731982313 -35.117203260317 0 0 0
10 1 3 -0.159 -21.105099024465492 -29.719621439625737 -35.85090899099282 0 0 0
9 1 2 -0.106 -22.44350635963193 -28.795359956037927 -35.690371691863135 0 0 0
584 1 6 0.053 -20.160817296098784 -22.91076707461122 -37.003775640045085 0 0 1
25 1 6 0.053 -19.729485002731433 -23.69742623550068 -34.78149685223802 0 0 0
30 1 7 0.2487 -21.45680318404275 -28.21336773855307 -33.75641898769005 0 0 0
3 1 5 0 -22.321171790961614 -27.300531873615423 -35.69263439012187 0 0 0
2 1 5 0.0827 -21.607379182753782 -26.536538354845206 -34.75885152586663 0 0 0
13 1 9 -0.5422 -21.17895692082554 -27.291587001616957 -33.6889766633072 0 0 0
567 1 6 0.053 -21.38579360131065 -27.021821116859517 -31.572054603926926 0 0 1
27 1 6 0.053 -19.55177383867881 -25.111943587484934 -33.80091217574892 0 0 0
566 1 6 0.053 -20.497736392968495 -25.85372630028835 -32.1941668551656 0 0 1
6 1 5 0.0827 -22.233243618503348 -24.480355903047677 -35.9285867279292 0 0 0
1 1 5 0 -21.380850446854172 -25.121237607602467 -34.97199393861506 0 0 0
11 1 3 -0.159 -20.332599413258823 -24.402212009331233 -34.19235500200941 0 0 0
26 1 6 0.053 -20.814675678047482 -23.94552190874732 -33.35650124046865 0 0 0
12 1 9 -0.5422 -22.092221923926964 -23.052279898246894 -36.22582802694122 0 0 0
553 1 5 -0.1268 -19.260434159139706 -23.289318258232957 -31.092932781042553 0 0 1
544 1 2 0.1048 -20.659738020971982 -26.89767675212028 -32.350334831473226 0 0 1
568 1 6 0.053 -18.99799405579094 -28.252210098062392 -32.81052299388813 0 0 1
31 1 8 0 -20.386665653192352 -28.869892051526723 -30.68081882344231 0 0 0
574 1 6 0.1268 -20.327295010431737 -23.569896655236324 -30.906939054129086 0 0 1
543 1 12 -0.133 -19.439861217127984 -28.59925688538425 -30.85974125158464 0 0 1
545 1 1 0.08 -19.354285240309217 -27.668169881818763 -31.902255828351844 0 0 1
548 1 5 0.0265 -18.29835880124796 -24.238028470466748 -30.858837364791 0 0 1
570 1 6 0.053 -17.833657468008617 -26.12960365421631 -32.44396608470195 0 0 1
569 1 6 0.053 -17.25384090763321 -27.107159000782005 -31.209073804868172 0 0 1
549 1 5 -0.1268 -17.01431001618448 -23.821571994665465 -30.925420193152164 0 0 1
546 1 2 0.027 -18.22286424013809 -26.599284469805518 -31.535104177471045 0 0 1
547 1 11 -0.1595 -18.67173230491058 -25.557891841846136 -30.538557275253293 0 0 1
571 1 6 0.1268 -16.321608169763383 -24.620904947983206 -30.77060575627468 0 0 1
550 1 5 -0.1268 -16.697596419848715 -22.554848718069348 -31.427763791325077 0 0 1
583 1 6 0.053 -22.042108710180567 -20.524901208368515 -37.444437826420106 0 0 1
564 1 2 0.1048 -20.93464773808008 -22.193247158089953 -36.63580045318104 0 0 1
585 1 6 0.053 -20.61551462605567 -21.743106404165317 -35.62361132182951 0 0 1
552 1 5 -0.1268 -19.003136594162143 -22.02090878729075 -31.57728001897096 0 0 1
551 1 5 0 -17.69166956028649 -21.604189156784347 -31.713526581247162 0 0 1
573 1 6 0.1268 -19.904054552053385 -21.328776783618572 -31.64551290884973 0 0 1
557 1 5 -0.1268 -19.76271354678413 -18.53639607020953 -34.83078069487758 0 0 1
558 1 5 0.0265 -19.26189256463461 -19.16674292800921 -35.97506008347798 0 0 1
578 1 6 0.1268 -20.578607972611472 -17.751981611862984 -35.0025640162641 0 0 1
561 1 11 -0.1595 -20.063362850224237 -19.118290917796152 -37.1280182655087 0 0 1
579 1 6 0.1268 -17.690121253228888 -20.527220925701926 -36.66331678781156 0 0 1
559 1 5 -0.1268 -18.19816684473766 -20.10467964108611 -35.82660304461163 0 0 1
572 1 6 0.1268 -15.608106987313365 -22.33258923543292 -31.51601218261338 0 0 1
555 1 5 0 -18.213095232320665 -19.656543047887098 -33.43649365880943 0 0 1
554 1 2 -0.106 -17.36901735837422 -20.10675870865914 -32.17734100346623 0 0 1
575 1 6 0.053 -17.525386916429415 -19.413319734426025 -31.287065195653096 0 0 1
577 1 6 0.1268 -19.484055593277088 -17.92762119851408 -32.91753487735148 0 0 1
556 1 5 -0.1268 -19.062839863777747 -18.60152482798685 -33.67841450471056 0 0 1
580 1 6 0.1268 -17.228662594270187 -21.294920057701997 -34.38008021322915 0 0 1
560 1 5 -0.1268 -17.813629249608407 -20.36938760450835 -34.5357893568517 0 0 1
576 1 6 0.053 -16.355902198045467 -20.09334353920086 -32.496549671352206 0 0 1
489 11 6 0.053 -19.31220659830631 -31.715689144354563 -22.989151075005488 0 0 0
491 11 6 0.053 -21.667020832284972 -30.675625412291794 -22.879525764921468 0 0 0
478 11 3 -0.159 -21.021155066321402 -30.688028360206335 -23.74739906755119 0 0 0
490 11 6 0.053 -21.209950045573716 -31.66418327219407 -24.23599985026691 0 0 0
488 11 6 0.053 -18.995347783324885 -30.34809542112351 -24.058793319169776 0 0 0
477 11 2 -0.106 -19.586213083502212 -30.672729181423517 -23.155569459350875 0 0 0
492 11 6 0.053 -21.349854058873163 -29.8720350042669 -24.51928782178585 0 0 0
482 11 6 0.1268 -19.207022468428498 -28.125618687482042 -22.990612412094773 0 0 0
229 6 6 0.1268 -51.99031216785765 -38.82812214664459 -17.85407733897625 1 1 0
206 6 5 -0.1268 -48.80702743689631 -38.83701633887887 -15.70488321167408 1 1 0
207 6 5 0.0265 -48.73199740155819 -39.155899982226266 -17.05227681707971 1 1 0
205 6 5 -0.1268 -50.09477138894145 -38.36578857668623 -15.305937486975841 1 1 0
208 6 5 -0.1268 -49.90349849702175 -39.25090772985308 -17.81500615116827 1 1 0
204 6 5 0 -51.20065448204865 -38.30834601248515 -16.190037939650736 1 1 0
209 6 5 -0.1268 -51.09886477928075 -38.89422913266729 -17.365779493235966 1 1 0
228 6 6 0.1268 -49.76043161666482 -39.54541860778662 -18.870279035767044 1 1 0
210 6 11 -0.1595 -47.61843761058969 -39.599279070854635 -17.714075712278213 1 1 0
211 6 2 0.027 -46.404279721284574 -39.5712132610787 -17.04140614504066 1 1 0
230 6 6 0.053 -45.98457285710788 -38.54430359192208 -17.331904530812896 1 1 0
231 6 6 0.053 -46.50493857536696 -39.63908041905173 -15.854386247380265 1 1 0
212 6 4 0.08 -45.49830282352317 -40.777545057098706 -17.39840649810121 1 1 0
232 6 6 0.053 -45.97397278843531 -41.683575356466065 -17.77138307500967 1 1 0
213 6 4 0.027 -44.232623265629414 -40.78229265371466 -16.63773014819256 1 1 0
233 6 6 0.053 -43.50282936567751 -41.634400923657346 -16.418941947620585 1 1 0
234 6 6 0.053 -43.9526208311639 -40.00604570825684 -15.883218725939631 1 1 0
214 6 10 -0.266 -44.29418987586057 -40.49971973996796 -18.062635945563063 1 1 0
224 6 6 0.053 -52.347616585632515 -36.71012788188396 -15.008874904831531 1 1 0
653 11 6 0.1268 -22.2738070329897 -33.28421426797504 -16.344914036025763 0 1 0
499 11 8 0 -22.237000837074802 -34.961280716202545 -20.098840078942132 0 0 0
493 11 6 0.053 -21.106344377948165 -30.772218937244514 -18.393751213428025 0 0 0
633 11 5 -0.1268 -21.2605289883716 -33.5292645771187 -16.000224673794698 0 1 0
632 11 5 0.0265 -20.505524008621684 -34.61144527855154 -16.546633170836312 0 1 0
631 11 5 -0.1268 -19.340474243100566 -34.99610914742995 -15.99798525480806 0 1 0
652 11 6 0.1268 -18.809449607552406 -35.853370460437 -16.37496962360802 0 1 0
635 11 11 -0.1595 -21.080777312801096 -35.32154171345065 -17.63697124377606 0 1 0
658 11 6 0.053 -19.148213798524452 -32.57099460015317 -18.94309264343638 0 1 0
494 11 6 0.053 -19.50756247125929 -30.643489549618028 -17.54106239643181 0 0 0
636 11 2 0.027 -20.182204538093774 -35.35246088238681 -18.782639228554636 0 1 0
655 11 6 0.053 -19.139042554012565 -35.43597147107313 -18.455562730696805 0 1 0
656 11 6 0.053 -20.448346278172508 -36.318458939489034 -19.264857234630746 0 1 0
637 11 1 0.08 -20.333530769531553 -34.255563107928964 -19.89336466094765 0 1 0
479 11 3 -0.159 -20.27897745705153 -30.12552066053832 -18.106444692776787 0 0 0
659 11 6 0.053 -20.923892688973105 -32.40581369773364 -18.980732384916205 0 1 0
638 11 2 0.1048 -20.076573454792488 -32.776736158364756 -19.496582507168785 0 1 0
657 11 6 0.053 -19.607052573643127 -34.55732010997703 -20.57714418069955 0 1 0
639 11 12 -0.133 -21.617695896924463 -34.359061779685774 -20.526736627750857 0 1 0
481 11 9 -0.5422 -20.162949098562205 -31.808491367555316 -20.612437951215426 0 0 0
498 11 7 0.2487 -20.19136396459318 -32.058098607917316 -21.57198589001686 0 0 0
470 11 5 0.0827 -19.765923677295348 -30.405207173988323 -20.627521515549514 0 0 0
495 11 6 0.053 -20.702250709399113 -29.341803161684382 -17.442577989767084 0 0 0
496 11 7 0.2487 -19.502386318361918 -28.170854215111536 -17.650732142057226 0 0 0
469 11 5 0 -19.7736708278542 -29.557699819820524 -19.47357254562679 0 0 0
472 11 5 -0.1268 -19.247400964886403 -28.515421387784023 -21.94535891967377 0 0 0
471 11 5 0 -19.447847485594643 -29.841547980636122 -21.880651710718194 0 0 0
473 11 5 0 -19.002511991953913 -27.683560898486178 -20.872842361719506 0 0 0
474 11 5 0.0827 -19.2492381075592 -28.246751649054836 -19.646192216543092 0 0 0
486 11 6 0.053 -20.25033388389209 -25.05852548045396 -22.122581903387402 0 0 0
476 11 3 -0.159 -19.88824635421977 -25.301361114588122 -21.119125579429983 0 0 0
485 11 6 0.053 -19.6110300330418 -24.30758905910278 -20.64469390735094 0 0 0
480 11 9 -0.5422 -19.220395512761197 -27.521030139683123 -18.359745375541173 0 0 0
483 11 6 0.053 -17.98464297373112 -25.77373832555434 -20.378813123172936 0 0 0
487 11 6 0.053 -20.688579299606552 -25.66384279007145 -20.517439945067675 0 0 0
475 11 2 -0.106 -18.652509542598114 -26.22077731216364 -21.069262379988718 0 0 0
484 11 6 0.053 -18.26938012115699 -26.213801368491172 -22.065125525260566 0 0 0
641 11 6 0.053 -19.399826304033812 -25.365280430240304 -18.04440329927366 0 1 0
618 11 2 0.1048 -18.611410082579113 -26.164309340425806 -17.876898296793357 0 1 0
640 11 6 0.053 -17.705639971195694 -25.781966224328645 -18.456915527302463 0 1 0
645 11 6 0.1268 -16.136390197757212 -29.620100644659924 -15.626389618000372 0 1 0
643 11 6 0.053 -16.900177792019917 -28.065378475076976 -16.50708894936841 0 1 0
642 11 6 0.053 -19.002984744459443 -26.885269021248064 -15.848599060637403 0 1 0
619 11 1 0.08 -18.244942951834727 -26.26389100700905 -16.382939960975 0 1 0
644 11 6 0.053 -15.937550813782478 -26.518820226133847 -16.22715012639999 0 1 0
620 11 2 0.027 -16.92091548370036 -27.067093322851466 -15.945044222166736 0 1 0
617 11 12 -0.133 -18.24709916056101 -25.05248995736213 -15.603214013656476 0 1 0
227 6 6 0.1268 -47.993699019545886 -38.89953280266717 -14.90825914006787 1 1 0
226 6 6 0.1268 -50.210146169593195 -38.213501575778324 -14.23375645264736 1 1 0
654 11 6 0.1268 -21.173940721325142 -31.95572718862598 -14.43339241908987 0 1 0
651 11 6 0.1268 -17.813769828822913 -34.56414695006795 -14.44415132136795 0 1 0
634 11 5 -0.1268 -20.72394597940835 -32.81579493965986 -14.89360392118883 0 1 0
629 11 5 0 -19.479856376856908 -33.17402327043403 -14.345526980822648 0 1 0
630 11 5 -0.1268 -18.79580440406242 -34.193677619978885 -14.912022283979846 0 1 0
649 11 6 0.053 -18.066283986041803 -33.03271449825689 -12.719754002846138 0 1 0
650 11 6 0.053 -19.647337634635214 -32.35691641268573 -12.280450803742985 0 1 0
647 11 6 0.1268 -19.39933225622462 -30.104946432289857 -11.83404331200481 0 1 0
628 11 2 -0.106 -18.965176477831996 -32.4204973288737 -13.154107946413356 0 1 0