LAMMPS data file using Dreiding for detda

31  atoms
18  bonds
11  angles
12  dihedrals
2  impropers

6  atom types
7  bond types
3  angle types
9  dihedral types
1  improper types

-3.5259999999999998e+00 3.5259999999999998e+00 xlo xhi
-3.9649999999999999e+00 3.9649999999999999e+00 ylo yhi
-9.1600000000000004e-01 9.1600000000000004e-01 zlo zhi


Masses

  5      1.007900     # H_
  6      1.007900     # H___b
  3     12.011000     # C_3
  2     12.011000     # C_R
  1     12.011000     # C_1
  4     14.006700     # N_1

Atoms

     1   1   1   -0.01482     -1.41100000      0.74400000     -0.00000000   0   0   0
     2   1   2    0.20995     -0.79200000     -0.46000000     -0.00000000   0   0   0
     3   1   1   -0.01041      0.55600000     -0.54400000     -0.00000000   0   0   0
     4   1   1   -0.01068      1.24700000      0.61200000     -0.00000000   0   0   0
     5   1   1   -0.00698      0.67900000      1.82700000     -0.00000000   0   0   0
     6   1   2    0.24813     -0.66600000      1.87000000     -0.00000000   0   0   0
     7   2   3   -0.03235      1.51100000      3.10200000     -0.00000000   0   0   0
     8   3   3   -0.03235      3.04000000      2.96200000     -0.00000000   0   0   0
     9   1   3    0.00000      1.43200000     -1.79700000     -0.00000000   0   0   0
    10   1   3    0.00000      0.87500000     -3.22400000      0.00000000   0   0   0
    11   1   3   -0.03235     -2.92700000      0.89700000     -0.00000000   0   0   0
    12   1   4   -0.23030     -1.23600000      3.00600000     -0.00000000   0   0   0
    13   1   4   -0.40088     -1.50900000     -1.50600000     -0.00000000   0   0   0
    14   1   5    0.00000      2.34600000      0.54300000     -0.00000000   0   0   0
    15   4   5    0.00000      1.23200000      3.69700000     -0.90400000   0   0   0
    16   5   5    0.00000      1.23200000      3.69700000      0.90300000   0   0   0
    17   2   5    0.03235      3.52600000      3.96500000     -0.00000000   1   1   0
    18   6   5    0.00000      3.40600000      2.42900000      0.90700000   0   0   0
    19   7   5    0.00000      3.40600000      2.42900000     -0.90800000   0   0   0
    20   8   5    0.00000      2.09600000     -1.72300000     -0.89800000   0   0   0
    21   9   5    0.00000      2.09600000     -1.72200000      0.89700000   0   0   0
    22   1   5    0.03235      1.70900000     -3.96500000      0.00000000   0   0   0
    23  10   5    0.00000      0.27800000     -3.43900000      0.91600000   0   0   1
    24  11   5    0.00000      0.27800000     -3.43900000     -0.91600000   0   0   0
    25   1   5    0.03235     -3.52600000     -0.03400000     -0.00000000   0   0   0
    26  12   5    0.00000     -3.25700000      1.45400000      0.90700000   0   0   0
    27  13   5    0.00000     -3.25700000      1.45400000     -0.90700000   0   0   0
    28   1   5    0.00000     -2.27900000      3.10400000     -0.00000000   0   0   0
    29   1   5    0.00000     -0.68400000      3.89600000     -0.00000000   0   0   0
    30   1   5    0.00000     -1.11700000     -2.47000000     -0.00000000   0   0   0
    31   1   6    0.21600     -2.55300000     -1.49000000     -0.00000000   0   0   0

Bonds

1  1  1  6 
2  1  1  2 
3  1  2  3 
4  2  2  13 
5  3  3  4 
6  3  4  5 
7  1  5  6 
8  2  6  12 
9  4  7  22 
10  5  15  16 
11  5  18  19 
12  5  20  21 
13  5  23  24 
14  5  26  27 
15  6  31  13 
16  4  25  11 
17  4  17  8 
18  7  9  10 

Angles

1  1  6  1  2 
2  2  1  2  3 
3  2  1  2  13 
4  2  3  2  13 
5  1  2  3  4 
6  1  3  4  5 
7  1  4  5  6 
8  2  1  6  5 
9  2  1  6  12 
10  2  5  6  12 
11  3  2  13  31 

Dihedrals

1  1  2  1  6  5 
2  1  2  1  6  12 
3  1  6  1  2  3 
4  1  6  1  2  13 
5  3  1  2  3  4 
6  3  13  2  3  4 
7  5  1  2  13  31 
8  5  3  2  13  31 
9  6  2  3  4  5 
10  6  3  4  5  6 
11  1  4  5  6  1 
12  1  4  5  6  12 

Impropers

1  1  2  1  3  13 
2  1  6  1  5  12 

Pair Coeffs

  1      0.095100     3.472990   # C_1
  2      0.095100     3.472990   # C_R
  3      0.095100     3.472990   # C_3
  4      0.077400     3.262560   # N_1
  5      0.015200     2.846421   # H_
  6      0.015200     2.846421   # H___b

Bond Coeffs

  1    350.000000      1.292000    # C_1 C_R
  2    350.000000      1.246000    # C_R N_1
  3   1050.000000      1.194000    # C_1 C_1
  4    350.000000      1.090000    # C_3 H_
  5    350.000000      0.650000    # H_ H_
  6    350.000000      1.056000    # H___b N_1
  7    350.000000      1.530000    # C_3 C_3

Angle Coeffs

  1     50.000000    180.000000    # X C_1 X 
  2     50.000000    120.000000    # X C_R X 
  3     50.000000    180.000000    # X N_1 X 

Dihedral Coeffs

  1      0.111110    1   3   # X C_1 C_R X
  2      0.111110    1   3   # X C_1 C_R X
  3      0.111110    1   3   # X C_R C_1 X
  4      0.111110    1   3   # X C_R C_1 X
  5      0.111110    1   3   # X C_R N_1 X
  6      0.111110    1   3   # X C_1 C_1 X
  7      0.111110    1   3   # X C_1 C_1 X
  8      0.111110    1   3   # X C_1 C_R X
  9      0.111110    1   3   # X C_1 C_R X

Improper Coeffs

  1     20.000000      0.000000    #  C_R X X X 
