thermo_style    custom step temp pe ke etotal press pxx pyy pzz v_etrue v_eengxy v_eengxz v_eengyz v_etruexy v_etruexz v_etrueyz                 f_sxx_ave f_syy_ave f_szz_ave f_sxy_ave f_sxz_ave f_syz_ave lx ly lz v_dir vol density ebond eangle edihed                 eimp evdwl ecoul elong epair v_Time

restart         ${nsteps} rst1.a.${myid} rst2.a.${myid}
restart         200 rst1.a.${myid} rst2.a.${myid}
restart         200 rst1.a.shear_2_EPON_862_pxld_88.2_replicate_1_FF_PCFF-class2xe rst2.a.${myid}
restart         200 rst1.a.shear_2_EPON_862_pxld_88.2_replicate_1_FF_PCFF-class2xe rst2.a.shear_2_EPON_862_pxld_88.2_replicate_1_FF_PCFF-class2xe
dump            6 all atom 10000 dump.${myid} #every picosecond
dump            6 all atom 10000 dump.shear_2_EPON_862_pxld_88.2_replicate_1_FF_PCFF-class2xe 
dump_modify     6 scale no sort id


#-------------------Run-------------------
run             ${steps}
run             750000

CITE-CITE-CITE-CITE-CITE-CITE-CITE-CITE-CITE-CITE-CITE-CITE-CITE

Your simulation uses code contributions which should be cited:

- Type Label Framework: https://doi.org/10.1021/acs.jpcb.3c08419

@Article{Gissinger24,
 author = {Jacob R. Gissinger, Ilia Nikiforov, Yaser Afshar, Brendon Waters, Moon-ki Choi, Daniel S. Karls, Alexander Stukowski, Wonpil Im, Hendrik Heinz, Axel Kohlmeyer, and Ellad B. Tadmor},
 title = {Type Label Framework for Bonded Force Fields in LAMMPS},
 journal = {J. Phys. Chem. B},
 year =    2024,
 volume =  128,
 number =  13,
 pages =   {3282–-3297}
}

CITE-CITE-CITE-CITE-CITE-CITE-CITE-CITE-CITE-CITE-CITE-CITE-CITE

PPPM initialization ...
  using 12-bit tables for long-range coulomb (../kspace.cpp:342)
  G vector (1/distance) = 0.18106493
  grid = 15 15 15
  stencil order = 5
  estimated absolute RMS force accuracy = 0.022088471
  estimated relative force accuracy = 6.6518776e-05
  using double precision KISS FFT
  3d grid and FFT values/proc = 1690 256
Generated 66 of 66 mixed pair_coeff terms from sixthpower/sixthpower mixing rule
Neighbor list info ...
  update: every = 1 steps, delay = 0 steps, check = yes
  max neighbors/atom: 5000, page size: 100000
  master list distance cutoff = 14
  ghost atom cutoff = 14
  binsize = 7, bins = 9 9 9
  1 neighbor lists, perpetual/occasional/extra = 1 0 0
  (1) pair lj/class2/coul/long, perpetual
      attributes: half, newton on
      pair build: half/bin/newton/tri
      stencil: half/bin/3d/tri
      bin: standard
WARNING: Inconsistent image flags (../domain.cpp:1051)
WARNING: Bond/angle/dihedral extent > half of periodic box length (../domain.cpp:1172)
Per MPI rank memory allocation (min/avg/max) = 19.1 | 19.47 | 19.51 Mbytes
   Step          Temp          PotEng         KinEng         TotEng         Press           Pxx            Pyy            Pzz          v_etrue        v_eengxy       v_eengxz       v_eengyz      v_etruexy      v_etruexz      v_etrueyz      f_sxx_ave      f_syy_ave      f_szz_ave      f_sxy_ave      f_sxz_ave      f_syz_ave          Lx             Ly             Lz           v_dir          Volume        Density         E_bond        E_angle        E_dihed        E_impro         E_vdwl         E_coul         E_long         E_pair         v_Time    
         0   298            24727.007      18706.318      43433.324      650.21516      1181.2609      202.41915      566.96544      0              0              0              0              0              0              0              0              0              0              0              0              0              58.499066      57.166683      59.046423      2              197462.9       1.2155166      9120.1982      20819.52      -7887.8271      402.81916     -2725.6327      24948.657     -19950.729      2272.296       0            
       200   297.35874      24849.169      18666.064      43515.233     -528.53945     -475.07558     -263.43847     -847.1043       3.99992e-05   -0.00086492503  3.9976752e-05  0.00042522904 -0.00086529929  3.9975953e-05  0.00042513865  1.2916064     -26.071415     -15.783673      15.67379      -25.690794     -2.6475185      58.488105      57.221278      59.080755      2              197729.35      1.2138787      9478.0043      20665.735     -7988.476       386.34574     -2736.5631      24995.818     -19951.695      2307.5602      0.2          
       400   294.92302      24963.049      18513.167      43476.216     -473.36208     -1869.852       209.53644      240.22932      7.99968e-05   -0.0024516726   7.9934443e-05  0.00093466293 -0.0024546829   7.9931249e-05  0.00093422641  5.7733389      13.557016      30.904174     -1.9985443     -17.419179     -8.5433044      58.455431      57.347051      59.094823      2              198100.42      1.2116049      9497.7442      20616.907     -7930.7448      398.24214     -2688.756       25019.606     -19949.95       2380.8999      0.4          
       600   301.24704      24998.387      18910.144      43908.531      611.11985      870.00976      672.77215      290.57764      0.0001199928  -0.0039774389   0.00011997357  0.0020505171  -0.00398537     0.00011996637  0.0020484176  -2.39907       -8.5873685     -1.0755235     -4.0715297     -16.199006     -4.0213944      58.398119      57.493055      59.059306      2              198290.81      1.2104416      9448.1009      20668.339     -7864.4646      415.38567     -2688.2069      24964.271     -19945.038      2331.0261      0.6          
       800   299.54159      24935.349      18803.088      43738.437     -91.45522       561.00295     -797.43762     -37.930987      0.0001599872  -0.0049576245   0.00016033169  0.0034827274  -0.0049699543   0.00016031883  0.0034766768   14.433497      17.340971      17.65784      -14.503209     -14.306359      5.2666036      58.345392      57.649891      58.923913      2              198196.8       1.2110157      9465.9873      20541.33      -7790.6074      406.78271     -2717.3949      24975.146     -19945.895      2311.8566      0.8          
      1000   298.31744      24884.106      18726.244      43610.351      606.72629      677.72571     -23.054687      1165.5078      0.00019998    -0.0047816594   0.00020091058  0.0046257982  -0.0047931281   0.0002008904   0.0046151321  -24.097175      6.3495445     -17.012155     -3.4004582      10.404183      6.1469249      58.294602      57.701195      58.77818       2              197710.29      1.2139957      9404.2589      20548.093     -7800.5636      392.24425     -2657.7717      24948.879     -19951.034      2340.074       1            
      1200   299.39692      24685.491      18794.006      43479.498      202.08616      588.08515     -516.90335      535.07668      0.0002399712  -0.0049014301   0.00024090139  0.0054007406  -0.0049134815   0.00024087237  0.0053862088  -10.329854      14.284023     -22.654643      5.5823201      5.9222831     -2.330948       58.346835      57.701552      58.824629      2              198045.05      1.2119436      9319.1005      20627.02      -7910.7608      404.42545     -2809.6991      25006.474     -19951.07       2245.7056      1.2          
      1400   297.02344      24849.401      18645.016      43494.417     -396.40799      112.58275     -905.3447      -396.46204      0.00027996081 -0.0058501439   0.00028095747  0.0057027185  -0.005867323    0.00028091801  0.0056865195   6.709847       3.407654       10.830636      9.2930038     -0.17117538     2.8003167      58.369149      57.623567      58.844241      2              197918.99      1.2127156      9454.435       20539.542     -7787.8993      387.42446     -2761.3582      24970.491     -19953.235      2255.898       1.4          
      1600   299.30761      24999.284      18788.401      43787.685     -671.62508     -588.42859     -855.06181     -571.38484      0.00031994881 -0.0069148091   0.00032101504  0.0056106134  -0.0069388271   0.00032096353  0.0055949326   9.9709572      12.959778      8.5111105     -5.4233194     -13.230372      1.422192       58.399559      57.511147      58.858791      2              197684.64      1.2141532      9667.8706      20582.309     -7941.6167      394.61938     -2746.8355      24994.587     -19951.65       2296.1019      1.6          
      1800   300.3748       24773.508      18855.391      43628.899      770.46917      1255.5634      694.35896      361.48512      0.00035993522 -0.0089027023   0.00036110847  0.0058002061  -0.0089425682   0.00036104329  0.0057834497  -0.55434024    -10.974806     -8.3160152      4.6598747     -22.217276     -3.4134688      58.382844      57.370857      58.864178      2              197164.02      1.2173592      9613.7478      20581.788     -8068.9003      397.83882     -2768.5159      24966.667     -19949.118      2249.0339      1.8          
      2000   298.12526      24727.57       18714.181      43441.75       701.38477      1143.0635      383.87258      577.21819      0.00039992002 -0.011816812    0.00040124445  0.0068396165  -0.011887186    0.00040116398  0.0068163325  -20.160987     -26.796219      1.1954698      1.3807728      1.5762476     -15.433442      58.381572      57.26019       58.86191       2              196771.83      1.2197856      9506.5035      20585.003     -8070.6666      396.5772      -2707.8877      24966.61      -19948.569      2310.153       2            
      2200   296.85234      24890.036      18634.276      43524.312     -62.781288      392.22217     -426.11815     -154.44788      0.00043990323 -0.015376042    0.00044100697  0.0087331312  -0.015495479    0.00044090975  0.008695218    4.7117575     -37.729271     -13.315926     -14.67511      -12.749982      12.936776      58.474371      57.29794       58.909346      2              197373.46      1.2160674      9372.3989      20650.767     -7801.424       411.02129     -2805.7641      25014.081     -19951.043      2257.2735      2.2          
      2400   295.9735       24703.735      18579.109      43282.844      170.21085      418.08659     -5.125257       97.671222      0.00047988484 -0.019124905    0.00048067218  0.010263903   -0.019310152    0.0004805567   0.010211587    30.638661      11.224134      7.154872       2.945594      -3.7306536      0.87484403     58.50521       57.399283      58.960734      2              197999.41      1.212223       9346.1251      20650.255     -8032.3091      401.62247     -2719.8203      25010.696     -19952.833      2338.0419      2.4          
      2600   301.12184      25102.52       18902.285      44004.805     -1119.5204     -1365.558      -1344.2928     -648.71043      0.00051986485 -0.021689019    0.00052032361  0.011303557   -0.021927683    0.00052018829  0.011240149   -2.7647033      13.129242      1.2140908     -7.3349437     -24.394312      8.237446       58.472344      57.436666      59.005916      2              198168.8       1.2111868      9405.8102      20707.463     -7654.1526      389.92163     -2783.5485      24987.644     -19950.617      2253.4783      2.6          
      2800   299.85293      24821.853      18822.631      43644.485      131.76687      82.431953      946.16125     -633.29259      0.00055984326 -0.023316658    0.00056033944  0.011231136   -0.023592793    0.00056018251  0.011168536   -9.2013144      6.4250575      4.2689307     -24.799428     -7.8659261      16.76451       58.435785      57.385845      59.006915      2              197873.02      1.2129973      9374.8263      20656.795     -7875.1023      400.47708     -2723.4759      24937.466     -19949.132      2264.8574      2.8          
      3000   296.64469      25035.218      18621.241      43656.459      8.2358583     -845.58918      435.50659      434.79016      0.00059982007 -0.022645173    0.00060053776  0.010104254   -0.022905513    0.00060035751  0.010053547    15.362521     -15.57789       9.590653      -25.42811      -20.558838      7.4809588      58.428449      57.421241      58.990521      2              197915.2       1.2127388      9306.698       20801.453     -7818.6986      388.27959     -2712.9629      25023.068     -19952.62       2357.4857      3            
      3200   296.38445      24997.904      18604.905      43602.809      171.56963      626.048        178.00473     -289.34383      0.00063979529 -0.019925491    0.00064107429  0.0082055859  -0.020126681    0.00064086889  0.0081721031  -11.67309       7.1036684      8.3301955     -8.8342561     -7.2056786      0.027982451    58.376816      57.478182      58.945475      2              197785.25      1.2135356      9323.898       20807.089     -7859.0835      409.54464     -2665.807       24935.923     -19953.66       2316.4558      3.2          
      3400   296.69076      24789.286      18624.133      43413.419     -204.71201      1290.3946     -2053.9903      149.45972      0.0006797689  -0.016658586    0.00068215734  0.0069408179  -0.016798901    0.00068192477  0.0069168413  -1.9371129     -20.365325      0.32864541    -4.1715529     -17.070274     -8.4075287      58.372712      57.536879      58.858256      2              197680.37      1.2141794      9301.8158      20669.55      -7865.2274      381.51836     -2749.8309      25002.728     -19951.267      2301.6295      3.4          
      3600   298.30388      24925.266      18725.393      43650.66      -629.6312      -308.56912     -886.64421     -693.68028      0.00071974092 -0.013288747    0.00072310886  0.0068532788  -0.013377833    0.00072284754  0.0068299018  -3.1144054      19.804807      0.59157355    -13.135672     -14.314791     -11.292032      58.383182      57.575553      58.79117       2              197623.23      1.2145305      9506.8767      20674.795     -7955.9424      404.81067     -2730.6101      24973.505     -19948.169      2294.7266      3.6          
      3800   300.03582      25093.007      18834.112      43927.119     -386.90614     -79.210094     -1083.0575      1.549232       0.00075971135 -0.0099691041   0.00076386309  0.0071352405  -0.010019128    0.0007635715   0.0071099051  -17.10982       5.8905211      5.5342539     -14.739351     -3.6249532      2.423181       58.432928      57.547067      58.746297      2              197542.86      1.2150246      9595.351       20760.875     -7890.6784      395.29554     -2774.2048      24956.835     -19950.466      2232.1639      3.8          
      4000   296.71371      24923.763      18625.574      43549.336      318.24855     -223.4295       1650.2297     -472.05459      0.00079968017 -0.0083814221   0.00080454444  0.0071225585  -0.0084167438   0.00080422097  0.0070973128   7.9021654      11.927273     -10.476894      18.358959     -11.859203     -2.0675348      58.455667      57.479932      58.711397      2              197271.92      1.2166934      9536.6776      20747.193     -8009.3973      388.33718     -2750.503       24962.465     -19951.01       2260.9525      4            
      4200   297.99628      24884.727      18706.084      43590.811      145.56312     -1114.1782      88.259981      1462.6076      0.0008396474  -0.0088020257   0.00084463029  0.0077669443  -0.0088409923   0.00084427379  0.0077369369   5.6866404      5.0947005     -13.453685      12.135072      3.58466       -9.0741523      58.467721      57.425474      58.72094       2              197157.7       1.2173982      9387.5049      20688.602     -7800.6391      396.1502      -2816.5658      24977.749     -19948.074      2213.1094      4.2          
      4400   296.65686      24763.905      18622.005      43385.91       118.52078     -976.01455      714.95811      616.61878      0.00087961303 -0.0092762064   0.00088328113  0.0084141626  -0.0093194983   0.00088289127  0.0083789608  -7.089801      -19.040164     -25.468567     -5.1581899     -17.390094     -2.1717898      58.469717      57.389938      58.824981      2              197391.54      1.2159561      9464.0028      20714.245     -8163.1429      396.56132     -2696.2745      24997.501     -19948.988      2352.2383      4.4          
      4600   297.6138       24731.027      18682.075      43413.102      130.98437      114.28018     -165.48593      444.15885      0.00091957706 -0.0093626169   0.00092214197  0.0086987186  -0.0094067217   0.00092171705  0.0086611027  -12.00578       1.2885808      22.732763     -0.097702076   -9.0958672      5.1755725      58.488312      57.450792      58.907019      2              197939.36      1.2125908      9360.8282      20705.915     -8033.363       401.91847     -2749.8069      24995.274     -19949.74       2295.7277      4.6          
      4800   297.17651      24931.534      18654.625      43586.159      380.08618      461.20328      540.74682      138.30843      0.00095953949 -0.0096744777   0.00096231127  0.008965071   -0.0097215795   0.00096184854  0.0089251233   10.666944      10.739233      23.244163      2.8068303     -6.9178456      4.9343423      58.539214      57.482282      58.902216      2              198204.05      1.2109714      9473.5749      20702.659     -7978.0197      399.94528     -2745.6311      25022.945     -19943.939      2333.374       4.8          
      5000   299.67267      24943.507      18811.316      43754.824     -1351.4322     -2181.3027     -661.84269     -1211.1514      0.00099950033 -0.0099803639   0.0010033811   0.0093542758  -0.010030502    0.0010028781   0.0093107955   15.783036      8.8303034      7.0230503     -7.7522863     -13.869606      1.529975       58.531728      57.456931      58.844854      2              197898.39      1.2128418      9362.3205      20684.983     -7721.8706      400.2436      -2820.3092      24987.434     -19949.294      2217.8308      5            
      5200   296.90984      24777.919      18637.886      43415.805     -51.399141     -349.25286      352.81569     -157.76025      0.0010394596  -0.0092810944   0.0010453213   0.0098041269  -0.0093244321   0.0010447753   0.0097563783   7.7919822      2.1685919     -2.2257877     -9.9234181      4.8513874     -3.3213668      58.446312      57.356858      58.742994      2              196923.95      1.2188433      9334.9502      20774.229     -7866.5059      397.29027     -2836.1714      24924.255     -19950.128      2137.9557      5.2          
      5400   298.23135      24943.516      18720.84       43664.356     -343.30837     -835.35309     -476.57928      282.00726      0.0010794172  -0.0080390463   0.0010872055   0.0099928742  -0.0080715337   0.001086615    0.0099432755  -20.133022     -33.615406     -33.493444      8.7643372     -17.142017      11.897946      58.38147       57.31262       58.652131      2              196249.74      1.2230306      9339.8129      20733.11      -7802.4739      404.12548     -2758.4207      24977.487     -19950.125      2268.9416      5.4          
      5600   297.87219      24613.973      18698.295      43312.267      600.05892      1008.6424     -982.84342      1774.3778      0.0011193733  -0.0075718947   0.0011259962   0.0097540938  -0.007600707    0.0011253627   0.0097068297  -0.1654996     -5.8574766     -12.929849      5.0361795     -20.129727     -2.0185534      58.304406      57.394425      58.729164      2              196528.21      1.2212976      9381.4159      20805.981     -8121.4824      385.21167     -2832.1225      24944.798     -19949.829      2162.846       5.6          
      5800   300.87881      24786.806      18887.029      43673.835      447.56904      520.25924      236.4715       585.97638      0.0011593277  -0.0081813706   0.0011636139   0.0088971242  -0.0082150217   0.0011629374   0.008857778   -9.8826453     -1.2520106     -1.6698618      11.646892     -8.4229617      2.058559       58.240121      57.523849      58.86068       2              197194.81      1.2171692      9243.0196      20767.218     -7908.0752      412.10559     -2768.3545      24987.332     -19946.44       2272.538       5.8          
      6000   298.00394      25159.995      18706.565      43866.56      -455.30276     -754.05786     -177.07618     -434.77425      0.0011992806  -0.0090019583   0.0012011657   0.0079654167  -0.0090427207   0.0012004449   0.0079338603  -2.5602797      17.484676      17.571762     -2.0050994     -10.453866      3.0295715      58.205678      57.597004      58.987216      2              197753.03      1.2137333      9411.9324      20792.293     -7691.7862      405.57526     -2795.9868      24985.101     -19947.134      2241.9803      6            
      6200   297.29318      24848.185      18661.949      43510.134     -96.846771     -379.99958     -431.28942      520.74868      0.0012392318  -0.0096449314   0.0012408123   0.0065122365  -0.009691745    0.0012400432   0.0064911235   15.642498     -3.7530858      12.68679       1.5849954     -14.408782     -5.0835536      58.156252      57.65013       59.00648       2              197831.94      1.2132492      9501.2202      20770.923     -8064.4476      404.50654     -2763.7877      24949.431     -19949.66       2235.9827      6.2          
      6400   297.72941      24949.19       18689.332      43638.522     -947.87809     -464.14626     -1262.2929     -1117.1952      0.0012791815  -0.010154034    0.001281819    0.0046240635  -0.010205938    0.0012809981   0.0046134053   3.0966158      14.429749      6.3938566     -11.552309     -12.457913      6.8257013      58.053432      57.698323      58.961967      2              197498.16      1.2152996      9311.4158      20607.195     -7549.4205      390.49787     -2844.0473      24982.345     -19948.796      2189.5019      6.4          
      6600   296.52098      24716.002      18613.475      43329.478     -388.36258     -74.715918     -307.25244     -783.11939      0.0013191296  -0.010014817    0.0013241875   0.0024184533  -0.010065303    0.0013233115   0.0024155335  -12.153678     -9.8116843      5.9699034      1.3627108     -7.7484636     -8.0825026      57.925719      57.730859      58.859491      2              196832.11      1.219412       9371.4693      20497.062     -7765.1291      394.8201      -2838.7506      25002.73      -19946.2        2217.7796      6.6          
      6800   297.32096      24860.535      18663.693      43524.228     -784.25544     -452.97013     -1117.5044     -782.29175      0.001359076   -0.010545067    0.0013647716   0.00081509134 -0.01060106     0.0013638412   0.00081475934 -16.793445      6.4436103     -26.925516      5.4890693     -3.4423098     -2.899889       57.859036      57.77013       58.839922      2              196673.85      1.2203932      9350.4124      20546.441     -7635.9886      391.34125     -2846.6539      25006.501     -19951.519      2208.3287      6.8          
      7000   300.96906      24992.022      18892.694      43884.716     -110.78026      382.12366     -108.20627     -606.25818      0.0013990209  -0.011202301    0.001403725    0.00096380513 -0.011265519    0.0014027406   0.00096334097 -36.415844      18.259884      5.4570688     -8.8084105     -0.74016965    -30.411128      57.966201      57.772931      58.889669      2              197214.28      1.217049       9270.6746      20784.615     -7721.6894      386.82924     -2798.8056      25021.882     -19951.484      2271.5923      7            
      7200   300.27623      24872.671      18849.203      43721.875     -282.68348     -8.5306933     -134.22833     -705.29142      0.0014389642  -0.010772522    0.001444148    0.002827397   -0.010830966    0.0014431062   0.0028234074   15.939842      5.5181999      8.4590275     -17.934065     -18.676593     -13.758225      58.167956      57.716353      58.876545      2              197662.83      1.2142872      9322.5406      20723.784     -7803.5942      388.31358     -2827.0403      25018.106     -19949.438      2241.6276      7.2          
      7400   298.56683      24848.222      18741.899      43590.121     -466.92846     -261.90138     -228.97208     -909.91192      0.0014789059  -0.0093039179   0.0014855723   0.0055597621  -0.0093474697   0.00148447     0.0055443637   4.6202379      13.625633      8.2426806      2.001396      -16.350441     -1.7171731      58.306402      57.604103      58.823985      2              197571.41      1.214849       9355.0653      20693.718     -7873.804       393.02258     -2781.8254      25009.465     -19947.42       2280.2202      7.4          
      7600   299.2405       24633.728      18784.188      43417.916      341.90074      424.52141      212.3396       388.84119      0.001518846   -0.0083301683   0.001527813    0.0075671356  -0.0083650581   0.0015266471   0.0075386485   3.2993229      10.708072      16.253065     -0.5218423     -16.389778     -8.2995603      58.402586      57.43059       58.742734      2              197028.71      1.2181953      9302.0416      20560.61      -7855.241       409.95491     -2817.5725      24986.161     -19952.225      2216.363       7.6          
      7800   298.23666      24746.673      18721.174      43467.847     -118.46785     -817.68313      894.41973     -432.14016      0.0015587845  -0.0074173426   0.0015682021   0.0093044303  -0.0074449879   0.0015669738   0.0092614107  -12.378441     -21.3852       -32.684389     -6.961117      -2.5238378      2.3644847      58.494278      57.365524      58.734998      2              197088.51      1.2178256      9449.0349      20601.891     -7894.4214      406.96683     -2864.501       24996.268     -19948.565      2183.2015      7.8          
      8000   300.59673      24997.388      18869.322      43866.71      -191.52335      321.29927     -594.90213     -300.9672       0.0015987214  -0.0065543508   0.0016078314   0.010597736   -0.0065759248   0.0016065403   0.010541974    7.4814024      11.105223      4.984315       7.9836494      6.5176915     -1.290815       58.551058      57.362797      58.755462      2              197339.18      1.2162787      9430.6967      20673.477     -7729.0502      397.74249     -2813.2323      24987.739     -19949.985      2224.5214      8            
      8200   298.78973      24719.951      18755.892      43475.843     -20.875809      781.12108     -250.88902     -592.85949      0.0016386567  -0.006332374    0.0016471349   0.011319586   -0.0063525085   0.0016457799   0.011255999    10.079858     -2.1636964     -4.9885076     -2.8521894     -23.361656      9.4466825      58.574625      57.314258      58.786823      2              197356.84      1.2161699      9462.1184      20573.969     -8001.5942      410.73123     -2772.4958      24995.142     -19947.919      2274.727       8.2          
      8400   297.3615       24835.921      18666.237      43502.158     -600.51453     -446.79731     -1113.4984     -241.24784      0.0016785904  -0.0061835343   0.0016864045   0.011929188   -0.0062027315   0.0016849841   0.011858596   -0.39127631    -15.061822      3.858251       4.6171248     -0.60979942    -7.2451572      58.577103      57.305341      58.817934      2              197438.91      1.2156643      9504.3649      20549.681     -7869.1328      414.18202     -2760.6999      24945.534     -19948.008      2236.8258      8.4          
      8600   297.44237      24738.818      18671.314      43410.132     -368.85361     -236.46424     -15.787788     -854.3088       0.0017185225  -0.0064733297   0.001727082    0.012901472   -0.0064943725   0.0017255923   0.012818956    21.337131      2.10326        10.358741      6.4691447     -13.439537      10.05525       58.455181      57.321989      58.79934       2              197022.9       1.2182312      9376.6122      20705.41      -8040.3992      400.45304     -2745.0345      24987.621     -19945.845      2296.7422      8.6          
      8800   300.0988       25066.873      18838.066      43904.938      87.627974      130.41447     -268.23807      400.70752      0.001758453   -0.006970538    0.0017675772   0.013562693   -0.0069949457   0.0017660169   0.013471543   -16.186101     -9.2493572     -5.1674328      9.4270768     -9.6080535      1.0204467      58.335946      57.385536      58.787826      2              196800.45      1.2196082      9495.9321      20777.851     -7785.7701      396.39303     -2856.1189      24985.205     -19946.62       2182.4663      8.8          
      9000   300.8788       24684.682      18887.029      43571.711      280.20312      362.47426     -37.905017      516.04013      0.0017983819  -0.0079812186   0.0018050402   0.013746622   -0.008013239    0.0018034131   0.013652995   -2.2622838      10.445286     -14.354493     -7.7619489      12.120432      5.0625246      58.2838        57.470399      58.875909      2              197210.35      1.2170732      9532.3695      20587.456     -8086.3553      407.47629     -2809.36        24998.515     -19945.42       2243.7358      9            
      9200   295.71149      25046.81       18562.662      43609.471     -1048.4897     -1117.4345     -1261.3386     -766.69584      0.0018383093  -0.0094857325   0.0018421042   0.013411525   -0.0095310086   0.0018404096   0.013322387   -13.368159      7.5535182      4.5567085      2.7038679      1.0556526      2.6125721      58.237239      57.49205       58.973592      2              197454.1       1.2155708      9473.5387      20846.181     -7834.3194      384.4014      -2862.2832      24985.133     -19945.842      2177.0079      9.2          
      9400   296.86671      24903.131      18635.178      43538.309     -94.708748     -171.67431     -15.505049     -96.94689       0.001878235   -0.011190978    0.0018801181   0.013254286   -0.011254068    0.0018783529   0.013167216    14.043747      3.8990385      9.6754511      7.3387624     -14.910176     -8.4544673      58.157097      57.457078      59.037442      2              197275.79      1.2166695      9387.1941      20875.181     -8064.4885      401.59699     -2741.7422      24994.824     -19949.435      2303.6473      9.4          
      9600   297.07955      24711.589      18648.538      43360.127     -366.33154      326.63779     -812.58136     -613.05106      0.0019181592  -0.01431102     0.0019168639   0.014064713   -0.01441441     0.0019150291   0.013966723   -14.928142     -2.1544255     -5.5779083      3.3370167     -20.039743      2.6240702      58.072644      57.424116      59.137079      2              197208.57      1.2170842      9413.4468      20669.644     -7924.7943      391.66709     -2833.525       24941.793     -19946.643      2161.6253      9.6          
      9800   298.29469      24966.538      18724.816      43691.354     -1249.397      -2050.3489     -1728.6126      30.77063       0.0019580817  -0.016829565    0.0019543096   0.01453881    -0.016972792    0.0019524024   0.014434135   -1.0571734     -7.7419632      13.73208      -13.82327      -19.553536      0.90729804     58.065021      57.449816      59.211985      2              197520.81      1.2151603      9399.412       20772.535     -7667.3421      399.28196     -2945.4175      24955.397     -19947.329      2062.6507      9.8          
     10000   296.74041      24751.317      18627.25       43378.567     -277.18645     -79.025763      171.86967     -924.40326      0.0019980027  -0.019004074    0.001994131    0.014666274   -0.019186973    0.0019921454   0.014559765   -9.7891851      16.427457      19.326666     -6.6046205     -11.502418      0.70601629     58.08812       57.455915      59.213722      2              197626.16      1.2145125      9281.0877      20801.595     -7847.3507      396.93506     -2882.6443      24946.197     -19944.502      2119.0501      10           
     10200   297.51708      24928.688      18676.004      43604.691     -300.44068     -555.70945      862.64492     -1208.2575      0.002037922   -0.020113235    0.0020369857   0.014225304   -0.020318259    0.0020349139   0.014125074   -11.47669      -24.386844      3.8746882     -20.615652     -23.812644      7.2503189      58.086922      57.448153      59.127697      2              197308.32      1.2164689      9417.7231      20796.68      -7849.8616      399.65684     -2832.5894      24946.261     -19949.182      2164.4892      10.2         
     10400   298.04336      25007.82       18709.039      43716.859     -1100.9439     -1508.3333     -1585.605      -208.8935       0.0020778398  -0.020030653    0.0020804967   0.013106777   -0.020233987    0.0020783354   0.013021627    3.4885401      13.909665     -3.0609864     -7.0190788     -2.483699       1.5071548      58.154622      57.48565       59.027137      2              197331.04      1.2163289      9378.8762      20849.87      -7775.6429      403.47481     -2908.8019      25002.984     -19942.94       2151.2421      10.4         
     10600   297.53322      24856.509      18677.017      43533.526     -5.1873935      317.11603     -337.64833      4.9701261      0.002117756   -0.018834397    0.0021263358   0.012404586   -0.019014023    0.0021240784   0.012328279    4.1814601      14.177431      7.3223211     -15.857882     -13.89119      -0.24648505     58.19893       57.414539      58.865834      2              196698.11      1.2202427      9161.2692      20836.596     -7737.2577      387.46335     -2764.3916      24921.581     -19948.751      2208.4383      10.6         
     10800   297.58384      24911.918      18680.194      43592.112      206.64373     -89.25584       1013.48       -304.293        0.0021576706  -0.016496228    0.0021695636   0.011139458   -0.016633806    0.0021672135   0.011077871   -7.3190271      11.885189     -32.78112      -2.2748406      7.4835742      3.0561457      58.332709      57.315789      58.782377      2              196532.13      1.2212733      9337.6172      20800.582     -7777.5118      418.293       -2884.053       24964.731     -19947.74       2132.9378      10.8         
     11000   296.70158      24822.057      18624.812      43446.869     -446.46017     -560.93645     -96.107051     -682.33699      0.0021975835  -0.013377128    0.0022108682   0.010133149   -0.013467408    0.0022084278   0.010082153   -0.1424189     -34.401906      6.2860346     -9.5922733     -21.608828     -8.3726361      58.448889      57.267346      58.753032      2              196658.9       1.220486       9268.362       20859.187     -7870.9688      403.6227      -2861.5613      24974.04      -19950.625      2161.8542      11           
     11200   299.48648      24932.879      18799.629      43732.508     -919.11146     -723.78628     -642.04007     -1391.508       0.0022374949  -0.010342864    0.0022528106   0.009489985   -0.010396724    0.0022502769   0.009445238    10.410993     -18.516462     -9.3411444     -4.3355182     -13.562798      6.6630981      58.552911      57.281092      58.707898      2              196904.81      1.2189618      9394.425       20752.389     -7745.3003      395.01887     -2857.9756      24947.791     -19953.468      2136.3468      11.2         
     11400   298.63451      24763.191      18746.148      43509.34       128.79881     -268.66538     -372.01729      1027.0791      0.0022774047  -0.0083033817   0.0022954431   0.0080569381  -0.0083380468   0.0022928126   0.0080246543   23.304261      20.006718     -2.2234396      3.1369387     -18.532083      10.591352      58.468529      57.288575      58.64716       2              196443.28      1.2218257      9255.7465      20717.457     -7879.8136      393.77138     -2737.9616      24962.454     -19948.462      2276.0298      11.4         
     11600   297.79646      24700.599      18693.541      43394.14       931.88534      904.97077      189.45512      1701.2301      0.002317313   -0.0067834537   0.0023324253   0.0074820254  -0.0068065659   0.0023297094   0.0074541739  -0.26215964     7.9505031     -18.959174      3.6191782     -1.0675684     -13.274869      58.394705      57.261837      58.730113      2              196381.05      1.2222128      9406.3366      20657.077     -7915.0806      397.91353     -2835.5318      24938.109     -19948.224      2154.3529      11.6         
     11800   298.08694      24686.935      18711.776      43398.711     -270.49036     -770.16639      821.67158     -862.97627      0.0023572196  -0.0058396351   0.0023678453   0.0071255573  -0.0058567524   0.0023650464   0.0071002904  -4.2914991     -8.0718929     -10.849476      2.6873526      1.0374977      8.3306687      58.396642      57.277499      58.849176      2              196839.53      1.2193661      9312.6772      20659.002     -7817.1449      376.36764     -2884.0786      24985.832     -19945.72       2156.0326      11.8         
     12000   299.07898      25020.786      18774.049      43794.835      264.53068     -587.5856       669.34648      711.83115      0.0023971246  -0.0051541305   0.0024025573   0.0069332256  -0.0051674589   0.0023996757   0.0069093013   13.385408      5.4204538     -1.8704518     -2.8135298      7.9158611     -15.282264      58.32794       57.249818      58.982038      2              196956.6       1.2186413      9395.3748      20852.816     -7777.9391      403.58711     -2919.5164      25011.891     -19945.428      2146.9468      12           
     12200   299.15771      24885.232      18778.991      43664.223     -96.48945      -912.96226      1023.4581     -399.96424      0.002437028   -0.0041012989   0.0024392426   0.0073050239  -0.0041097323   0.0024362725   0.0072784714  -20.157137     -9.0766486      13.042624     -5.3347913      18.246425      0.45180122     58.261036      57.209579      59.06306       2              196862.46      1.219224       9321.9934      20813.451     -7821.6483      404.09935     -2822.2075      24937.184     -19947.64       2167.3366      12.2         
     12400   298.26659      24659.279      18723.052      43382.331      561.36626      682.05855      852.32844      149.71179      0.0024769299  -0.003077382    0.0024791905   0.0080150179  -0.0030821269   0.0024761224   0.0079830682   3.8590123     -2.3280363      18.752914      8.6912243     -17.720518     -10.064218      58.249225      57.259706      59.06368       2              196997.07      1.2183909      9444.8583      20618.715     -7989.0121      394.91213     -2847.5067      24985.105     -19947.793      2189.8059      12.4         
     12600   295.6004       24902.672      18555.688      43458.36      -139.71015     -25.092138     -502.07217      108.03386      0.0025168301  -0.0026224085   0.0025208614   0.0097116407  -0.002625853    0.0025176894   0.0096647858   9.3804652     -6.4192647     -11.65551       7.80304       -13.202089     -2.0229858      58.219073      57.348296      59.023333      2              197065.02      1.2179708      9419.9499      20793.492     -7842.9782      388.15376     -2898.2549      24995.244     -19952.935      2144.0542      12.6         
     12800   297.69386      24940.07       18687.101      43627.17       19.258063      69.901761      264.57126     -276.69883      0.0025567288  -0.0033354744   0.0025613405   0.01163094    -0.0033410495   0.0025580658   0.011563821   -11.448944      5.9905563      4.5033584      14.984126     -1.9323185      1.659706       58.137462      57.403307      59.011394      2              196937.7       1.2187582      9413.3555      20723.036     -7778.0181      415.49872     -2844.8373      24957.824     -19946.789      2166.1976      12.8         
     13000   302.04098      24852.237      18959.982      43812.219      337.38931      449.37758      608.83494     -46.044597      0.0025966258  -0.005696449    0.0026044954   0.014425751   -0.0057127356   0.0026011095   0.01432269     1.1461645     -2.6170127      20.058033      10.146728      5.9406318     -7.4254334      58.073793      57.481549      58.93823       2              196745.92      1.2199462      9503.0406      20748.574     -7977.5302      396.46443     -2864.0555      24993.62      -19947.877      2181.6879      13           
     13200   299.54973      24825.361      18803.599      43628.96      -437.62694     -1186.9701     -188.3331       62.422343      0.0026365213  -0.0081579567   0.0026495413   0.016726554   -0.008191415    0.0026460375   0.016588206   -4.0749402      9.2507098     -10.842744     -1.6976523     -20.764281      10.815947      58.040686      57.520455      58.825401      2              196390.17      1.2221561      9384.138       20769.876     -7797.812       392.38226     -2915.4881      24934.776     -19942.51       2076.7773      13.2         
     13400   295.96692      24934.955      18578.695      43513.651     -385.79994      72.420317     -588.1364      -641.68374      0.0026764152  -0.010292951    0.0026890893   0.018164163   -0.01034629     0.0026854802   0.018001165   -20.891569     -21.303971     -26.183146      13.519404      3.3819261     -7.05054        58.059121      57.581864      58.836962      2              196700.93      1.2202252      9420.12        20723.023     -7804.0716      411.96954     -2834.9319      24965.422     -19946.576      2183.914       13.4         
     13600   297.64993      24731.32       18684.343      43415.663     -480.38044     -697.35386     -878.36271      134.57525      0.0027163075  -0.013344376    0.0027236986   0.019211076   -0.013434212    0.002719996    0.019028873    23.452176      35.077487     -0.18769762     3.8316598     -4.3569201      10.224614      58.086149      57.591012      58.955173      2              197219.21      1.2170186      9288.3749      20701.912     -7787.5797      402.14805     -2861.1129      24931.857     -19944.279      2126.4648      13.6         
     13800   299.23149      24728.283      18783.622      43511.905      579.93314      1618.1468     -334.99591      456.64849      0.0027561982  -0.01486516     0.0027603916   0.018374718   -0.014976754    0.0027565887   0.018207942    4.8474959      9.4215296      7.478687      -11.880388      6.6646354      23.442659      58.042845      57.529138      59.027884      2              197103.24      1.2177346      9332.2039      20754.619     -7902.3027      389.47223     -2858.8033      24959.035     -19945.941      2154.2907      13.8         
     14000   301.198        25088.394      18907.065      43995.459     -391.4201       161.01656     -1363.0143      27.737501      0.0027960873  -0.015360311    0.0027998419   0.01726061    -0.015479503    0.0027959297   0.017113338   -8.3347343     -11.417251      0.66538686    -16.049808     -5.8466231     -2.9557311      57.988071      57.469488      59.04076       2              196755.98      1.2198839      9364.3821      20753.237     -7612.1257      413.22125     -2872.1015      24990.386     -19948.605      2169.6796      14           
     14200   297.3564       24969.356      18665.917      43635.273     -113.24249     -493.90778     -13.706538      167.88684      0.0028359748  -0.014689827    0.0028390146   0.015628161   -0.014798791    0.0028349922   0.015507299   -12.905856     -3.6780707      0.16409937    -4.0736462     -16.69227       6.8332093      58.017912      57.427775      59.059506      2              196776.8       1.2197548      9378.1436      20821.507     -7760.1676      417.53946     -2856.6486      24916.723     -19947.741      2112.3334      14.2         
     14400   295.90612      24954.699      18574.879      43529.578     -499.28233     -1221.1223      295.79679     -572.5215       0.0028758607  -0.013648194    0.0028779904   0.014362414   -0.013742187    0.0028738569   0.014260252    6.8606079      3.0499486      1.2986232     -2.4229489     -10.257876     -6.046167       58.052382      57.4359        59.081361      2              196994.44      1.2184072      9279.0021      20790.634     -7673.5144      409.29572     -2876.4132      24976.357     -19950.662      2149.2819      14.4         
     14600   298.45418      24617.486      18734.828      43352.314      542.71086      978.76027      481.85102      167.52129      0.0029157451  -0.011799457    0.0029186215   0.013024949   -0.011869623    0.0029143706   0.012940853   -20.449139      13.003259      12.320301     -5.7573866     -5.4788372      2.5606382      58.145089      57.369745      59.069106      2              197040.89      1.21812        9371.9925      20736.411     -8109.0107      413.29282     -2833.8447      24989.611     -19950.966      2204.7999      14.6         
     14800   297.51461      24789.231      18675.848      43465.08       303.68323      451.45685      431.33441      28.258418      0.0029556278  -0.0094057098   0.0029634475   0.011247818   -0.0094502228   0.0029590651   0.011185032   -6.8426782      0.079739196    2.8408382     -1.7288731      6.4510161      3.813825       58.294562      57.267154      58.97381       2              196876.02      1.21914        9180.7355      20805.757     -7761.3962      394.23137     -2836.9791      24956.082     -19949.199      2169.9038      14.8         
     15000   303.69378      24886.334      19063.733      43950.068     -502.68933      51.75481      -708.91027     -850.91252      0.002995509   -0.0079197877   0.0030081321   0.0096187101  -0.0079513158   0.0030036167   0.0095727448   4.4633807     -11.457887      7.1463482      7.2509451     -8.2866176     -7.25391        58.481882      57.230587      58.883884      2              197081.56      1.2178686      9366.7731      20797.092     -7802.7512      394.18522     -2827.259       24906.984     -19948.69       2131.0354      15           
     15200   301.47071      24763.656      18924.184      43687.84       177.12579      601.43581      196.94075     -266.99919      0.0030353885  -0.0070122064   0.0030533747   0.008668815   -0.0070369075   0.0030487226   0.0086314565   11.18055       2.1083671      11.220376      7.0188835      0.78777273     1.6683085      58.603638      57.20901       58.785379      2              197087.16      1.217834       9393.2697      20744.008     -7875.4672      411.03733     -2848.8349      24889.397     -19949.754      2090.8075      15.2         
     15400   296.1284       24940.435      18588.832      43529.267     -174.13494     -316.69569     -832.21132      626.5022       0.0030752665  -0.0069476495   0.0030962496   0.007460274   -0.0069718968   0.0030914661   0.0074325838   4.385301      -22.417829     -23.51902       5.9852249     -2.7948204      3.2808764      58.632748      57.229857      58.734707      2              197086.88      1.2178357      9315.8971      20862.955     -7825.7612      402.93625     -2767.4656      24900.611     -19948.738      2184.4074      15.4         
     15600   297.85928      24753.568      18697.484      43451.052     -660.96126     -104.65413     -1234.1527     -644.07693      0.0031151429  -0.0075829092   0.0031355237   0.0065257161  -0.0076118057   0.0031306182   0.0065045158   5.4265347     -23.748336     -13.004326      13.321274     -8.2964338     -0.13778567     58.601932      57.343468      58.752636      2              197434.59      1.2156909      9381.2346      20737.27      -7909.8512      402.86182     -2835.8395      24927.371     -19949.479      2142.0524      15.6         
     15800   297.65742      24966.482      18684.813      43651.295     -675.56218     -39.759622     -1348.2451     -638.6818       0.0031550177  -0.0092776855   0.0031754322   0.0048078719  -0.0093209913   0.0031704012   0.004796351    33.39067       7.5596432      17.584965      1.6016213      0.58192584     13.367633      58.470473      57.434399      58.75858       2              197324.03      1.2163721      9220.439       20875.076     -7689.6781      406.78784     -2823.0472      24928.631     -19951.726      2153.8576      15.8         
     16000   296.79813      24745.824      18630.873      43376.697     -27.003683     -670.03205     -72.043672      661.06468      0.0031948909  -0.010823044    0.0032181102   0.0037203847  -0.01088204     0.0032129432   0.0037134812  -13.234522      13.322526      7.1342229      7.879308      -11.80699      -18.843858      58.315477      57.502472      58.713517      2              196883.1       1.2190962      9394.9456      20729.571     -7939.0787      402.9041      -2826.8325      24933.765     -19949.45       2157.4819      16           
     16200   298.75789      24727.345      18753.893      43481.238      899.42607      381.085        1099.6303      1217.5629      0.0032347625  -0.011987838    0.0032608634   0.0042038685  -0.012060272    0.0032555583   0.0041950569  -11.62084       17.091249     -0.024063776   -10.289023     -9.2644043     -11.798658      58.261986      57.47557       58.667901      2              196457.73      1.2217358      9329.4269      20683.905     -7900.7485      421.60128     -2795.2757      24940.804     -19952.369      2193.1601      16.2         
     16400   297.28777      24787.528      18661.609      43449.137     -384.95629     -364.28283     -824.27596      33.689935      0.0032746325  -0.012791571    0.0033024225   0.0048150956  -0.012874087    0.0032969814   0.0048035402  -20.247675     -7.8701354     -12.347035      1.2954773     -0.36018393     1.4327163      58.325907      57.449006      58.64461       2              196504.33      1.2214461      9381.726       20672.471     -7808.4114      402.80288     -2896.4218      24986.03      -19950.669      2138.9391      16.4         
     16600   299.90797      24859.661      18826.087      43685.748     -15.082797      144.36909     -541.69816      352.08069      0.003314501   -0.013096435    0.0033400644   0.0065103984  -0.01318295     0.0033344988   0.0064892972   14.529327      5.7524819      7.8159102     -11.015419     -12.482993     -10.337302      58.370324      57.43885       58.690241      2              196772.2       1.2197833      9398.0011      20659.64      -7809.6078      417.45142     -2885.0938      25029.646     -19950.376      2194.1759      16.6         
     16800   297.48443      24769.649      18673.954      43443.603      859.19517      893.82727      1973.5        -289.74173      0.0033543678  -0.012611055    0.0033776216   0.0086635581  -0.012691249    0.0033719302   0.0086262448   7.365241      -15.73169      -15.625521     -1.8138354     -4.7595025     -3.9554428      58.36957       57.404769      58.735919      2              196805.95      1.2195741      9469.0873      20726.688     -7954.8998      413.98964     -2871.7069      24938.378     -19951.887      2114.784       16.8         
     17000   297.31074      24891.648      18663.051      43554.7        202.52635      44.588423     -224.88262      787.87324      0.0033942331  -0.011619274    0.0034155321   0.010787716   -0.011687305    0.0034097124   0.010729944    10.916326      0.34619026     9.5707409     -0.68331325    -9.6874723      5.4160315      58.319721      57.427291      58.774236      2              196843.36      1.2193424      9274.6633      20826.614     -7812.3259      398.84465     -2809.6717      24963.842     -19950.319      2203.8519      17           
     17200   295.14207      24906.617      18526.917      43433.534     -387.92414      292.50282     -26.013322     -1430.2619      0.0034340967  -0.010821282    0.0034506361   0.012164358   -0.010880258    0.0034446963   0.012090967    2.1604264      12.162419     -9.8918728      2.8298664      2.2906994      15.184709      58.19742       57.417094      58.859805      2              196681.61      1.2203451      9400.4461      20568.581     -7623.2212      414.94716     -2841.1236      24940.249     -19953.262      2145.8632      17.2         
     17400   296.71363      24905.975      18625.569      43531.544      139.00266      142.72519      695.5383      -421.25551      0.0034739588  -0.0091813412   0.0034830355   0.012222808   -0.0092237495   0.0034769838   0.012148713   -7.3414454     -7.4233066     -0.29210854    -15.717209      5.5417633      18.035264      58.086244      57.428573      58.990294      2              196780.42      1.2197323      9248.2852      20692.712     -7711.5878      437.85765     -2808.9111      24998.764     -19951.144      2238.7084      17.4         
     17600   300.76642      24914.978      18879.974      43794.952     -67.755613     -151.46434      145.44912     -197.25162      0.0035138193  -0.0071542257   0.0035228127   0.011231123   -0.0071799398   0.0035166222   0.011168522   -22.186254     -5.5973728      30.269452      8.2384569     -4.3002429      4.21951        58.075488      57.455819      58.995296      2              196854.01      1.2192763      9373.8919      20773.654     -7753.1807      392.87017     -2902.5312      24983.192     -19952.917      2127.7429      17.6         
     17800   297.4226       24841.823      18670.073      43511.896      1014.5672      1626.2827      1104.1894      313.22969      0.0035536782  -0.0057792706   0.0035675147   0.010227638   -0.0057960352   0.0035611662   0.010175689   -7.7876402     -13.493311     -0.46953349     8.2774287      2.4552173      2.8733415      58.125713      57.494571      58.918702      2              196901.17      1.2189843      9351.2689      20775.021     -7806.5541      396.66365     -2896.2725      24976.272     -19954.576      2125.4234      17.8         
     18000   296.77171      24831.735      18629.214      43460.95       337.57258      555.98482     -292.53867      749.2716       0.0035935355  -0.0051206218   0.003611739    0.0089494369  -0.0051337771   0.0036052324   0.008909628    10.079134      7.2860155     -4.2883758      11.039721      14.392977     -3.8558401      58.157217      57.590088      58.851885      2              197111.4       1.2176842      9342.5762      20667.783     -7742.5422      394.83053     -2830.2305      24950.612     -19951.293      2169.0883      18           
     18200   301.65671      24508.01       18935.86       43443.871      390.22205      1098.0742      199.38221     -126.7903       0.0036333912  -0.004837035    0.003652952    0.0075098119  -0.0048487713   0.0036462962   0.0074817537   25.434588      23.4663       -5.2222227     -6.4904619     -24.703131      1.5740086      58.096832      57.627162      58.835137      2              196977.43      1.2185124      9227.04        20821.763     -8055.1153      395.92185     -2894.4926      24964.498     -19951.605      2118.4009      18.2         
     18400   299.44767      25102.467      18797.192      43899.66      -243.06805     -996.59328      799.64        -532.25086      0.0036732454  -0.0048482288   0.0036913624   0.0062892959  -0.0048600196   0.003684566    0.0062696008  -14.266352      9.1861781     -26.006015      4.4401998      12.848418     -15.259233      58.00856       57.564327      58.863234      2              196557.51      1.2211156      9256.3313      21003.319     -7710.0457      404.95663     -2838.822       24936.89      -19950.162      2147.9058      18.4         
     18600   299.28786      24810.417      18787.161      43597.578      310.23362      145.91029      1622.1815     -837.39094      0.0037130979  -0.004101545    0.0037211461   0.0056478427  -0.0041099794   0.0037142397   0.0056319534  -21.440707     -17.423109     -14.493668     -8.1198742     -7.925361      -2.0428515      58.011506      57.514739      59.027019      2              196944.63      1.2187153      9343.9656      20751.107     -7952.3536      409.13159     -2790.229       24999.536     -19950.742      2258.5659      18.6         
     18800   295.20481      24886.985      18530.856      43417.841      470.82861     -637.4545       1593.0374      456.90292      0.0037529489  -0.003560022    0.003747894    0.0053666152  -0.0035663739   0.0037408882   0.0053522662   3.3340185      23.092101      9.1225037      4.1467087     -9.3846737      1.4278886      58.048615      57.440153      59.236012      2              197511.9       1.2152151      9331.6902      20881         -7998.6491      411.72046     -2776.5426      24990.221     -19952.455      2261.2241      18.8         
     19000   300.80711      24756.13       18882.528      43638.658      61.895809      62.223708      24.670998      98.792719      0.0037927982  -0.0038458382   0.0037811447   0.0047304651  -0.0038532525   0.0037740142   0.0047193116   0.44663791    -1.1479774      29.735432      19.549356     -5.0232285     -2.7421381      58.080967      57.350022      59.339917      2              197657.98      1.2143169      9292.984       20552.051     -7664.4435      402.99066     -2853.5003      24975.322     -19949.274      2172.5471      19           
     19200   297.02921      24677.632      18645.379      43323.01       329.0379       540.79795      616.61429     -170.29853      0.003832646   -0.0053526622   0.0038238033   0.0043476912  -0.0053670391   0.0038165112   0.0043382673   13.430128     -2.1038652      13.123829      0.21311118    -3.8334575     -5.1109756      58.054365      57.241502      59.295674      2              197046.58      1.2180848      9427.8483      20703.995     -8070.6561      391.90595     -2794.315       24970.94      -19952.087      2224.5382      19.2         
     19400   298.15955      24758.656      18716.334      43474.99      -466.83902     -1242.0292      128.95742     -287.44525      0.0038724922  -0.0074258588   0.0038693708   0.0048082677  -0.0074535677   0.0038619041   0.0047967449  -21.057802     -14.443116     -1.1578523      14.70845      -2.5829548     -13.394989      58.020985      57.147472      59.207635      2              196317.87      1.2226062      9347.4217      20710.265     -7840.0828      407.22188     -2857.0755      24943.316     -19952.41       2133.8304      19.4         
     19600   298.21629      24683.35       18719.895      43403.245     -108.97529     -519.86123     -540.06407      732.99944      0.0039123368  -0.009455546    0.0039145424   0.0066583741  -0.0095005335   0.0039069005   0.006636305   -22.781806     -27.306458     -8.7629532     -7.2808224     -11.454257     -9.7072273      58.115497      57.22358       59.127118      2              196631.77      1.2206544      9130.9991      20685.64      -7711.545       403.79157     -2839.1367      24963.07      -19949.469      2174.4637      19.6         
     19800   301.22234      24595.749      18908.594      43504.342      1700.307       1702.6886      1441.1285      1957.1039      0.0039521798  -0.01077646     0.0039604108   0.0085894318  -0.010834946    0.003952589    0.0085527525  -2.8285816      11.431223      30.293922     -4.138501      -8.2974871      7.8620918      58.261978      57.317485      59.03779       2              197152.57      1.2174299      9361.5127      20690.159     -8095.5644      409.32293     -2764.0904      24948.565     -19954.157      2230.3181      19.8         
     20000   296.8298       24760.032      18632.861      43392.893      427.05097      414.63789      308.68803      557.82698      0.0039920213  -0.011262054    0.0040076794   0.0094251234  -0.011325951    0.0039996701   0.0093809841   6.1543181     -16.292494     -3.013342      -9.6692022      1.1336387     -7.7791902      58.391928      57.408817      58.930321      2              197546.9       1.2149998      9264.8604      20639.162     -7743.6483      406.00957     -2824.9384      24967.154     -19948.567      2193.6487      20           
     20200   299.08204      24663.381      18774.241      43437.622      805.09471      219.40789      1376.9794      818.89682      0.0040318611  -0.011342772    0.0040573177   0.010644456   -0.011407592    0.004049109    0.010588203    19.743391      10.251765      17.33967      -6.0483969     -19.145669      3.7143403      58.410667      57.460812      58.790714      2              197320.71      1.2163926      9234.7406      20886.673     -8011.0023      399.95494     -2875.3457      24976.681     -19948.32       2153.0149      20.2         
     20400   299.0045       24782.355      18769.373      43551.728      166.22762      849.42454     -62.884722     -287.85697      0.0040716994  -0.011269334    0.0041062963   0.010711295   -0.011333314    0.0040978885   0.010654336    0.45511312    -18.206917     -11.902505      4.4811537     -4.916631       10.094879      58.380331      57.517805      58.664571      2              196990.26      1.218433       9138.2916      20791.948     -7796.7644      406.48322     -2797.4846      24991.314     -19951.433      2242.3966      20.4         
     20600   297.25339      24848.252      18659.451      43507.704     -635.48491     -428.30276     -764.12669     -714.02529      0.004111536   -0.01127171     0.0041468155   0.010855404   -0.011335717    0.0041382412   0.010796907    23.993916      22.538226     -20.650295     -4.3424289     -6.6114452     -3.1084249      58.267638      57.600314      58.660774      2              196879.3       1.2191197      9294.788       20827.807     -7853.0509      408.92597     -2839.0903      24960.738     -19951.865      2169.7822      20.6         
     20800   300.25412      25142.095      18847.815      43989.91       324.94612      513.72548     -113.72294      574.83583      0.0041513711  -0.010123969    0.0041811363   0.010418189   -0.010175565    0.0041724197   0.010364293   -16.059474     -0.58523145    -12.605236     -19.847437     -8.7385036      13.800961      58.162875      57.582765      58.744377      2              196745.44      1.2199492      9490.441       20866.695     -7768.9281      405.4864      -2883.8615      24981.838     -19949.576      2148.4004      20.8         
     21000   298.86716      24961.79       18760.752      43722.541     -443.33008     -202.14399      197.37196     -1325.2182      0.0041912046  -0.007922681    0.0042124255   0.0088899783  -0.0079542322   0.004203578    0.0088506951  -13.716982      3.1972694     -12.047179     -10.685667      10.180665      12.851021      58.136879      57.555083      58.869561      2              196981.84      1.2184851      9413.0382      20683.371     -7674.5042      414.49064     -2881.943       24957.935     -19950.599      2125.3936      21           
     21200   299.98511      24671.026      18830.929      43501.955      306.65368      470.56582     -284.99768      734.39291      0.0042310365  -0.0053843352   0.0042434728   0.0071839945  -0.005398883    0.0042344946   0.0071583125  -11.201835     -0.80116574     17.908163     -0.79176063     4.2836759     -11.013453      58.196461      57.535518      58.996214      2              197540.77      1.2150375      9240.9361      20627.074     -7844.5409      408.22696     -2801.963       24988.836     -19947.543      2239.33        21.2         
     21400   297.22159      24930.735      18657.455      43588.19      -237.62074     -655.48344     -13.128065     -44.250723      0.0042708669  -0.0034445814   0.00428147     0.0066468772  -0.0034505276   0.0042723306   0.0066248841   5.9420061     -1.7271233      9.0892331      2.4610064      3.4835216     -12.815106      58.279821      57.51462       59.024479      2              197846.62      1.2131592      9285.249       20841.113     -7644.5654      405.50632     -2937.3931      24932.172     -19951.347      2043.4321      21.4         
     21600   296.15726      24770.693      18590.643      43361.336     -542.71698     -624.56681      74.078752     -1077.6629      0.0043106956  -0.002044303    0.0043264267   0.0068433031  -0.0020463954   0.0043170946   0.006819994    22.200563      23.291474      18.386668      15.20369      -4.0916154     -0.61468703     58.23661       57.449317      58.956961      2              197249.56      1.2168313      9228.1981      20652.59      -7708.162       422.87635     -2821.3379      24947.315     -19950.788      2175.1898      21.6         
     21800   297.37904      24879.93       18667.339      43547.268      742.26942      476.96142      1834.9974     -85.15058       0.0043505227  -0.0025246028   0.004372858    0.0066523714  -0.002527795    0.0043633249   0.006630342   -1.8840687     -7.6377951     -5.4457971      6.8805987     -18.117909      6.3072117      58.146971      57.323536      58.87112       2              196228.63      1.2231622      9299.4102      20823.504     -7790.6263      422.91708     -2828.9337      24902.753     -19949.095      2124.7243      21.8         
     22000   299.58885      25029.199      18806.055      43835.254      75.062453      878.67171     -388.09912     -265.38523      0.0043903483  -0.0036809662   0.0044147867   0.0065556941  -0.0036877576   0.0044050702   0.006534299   -46.602156     -28.247801     -20.487468      16.791544     -1.8669243     -4.1183983      58.171402      57.324279      58.847002      2              196233.2       1.2231337      9340.279       20898.583     -7780.7116      403.02377     -2837.8961      24955.861     -19949.94       2168.0249      22           
     22200   300.73121      24781.422      18877.764      43659.186     -655.95914     -906.51899     -890.85587     -170.50255      0.0044301723  -0.0058296099   0.0044541594   0.0072538435  -0.0058466685   0.004444269    0.0072276609   6.0276326     -5.871457       14.751417      2.3690187      2.9136006     -6.5035557      58.363859      57.40425       58.85677       2              197189.81      1.2172         9201.8689      20776.59      -7701.6868      406.40742     -2901.8585      24950.991     -19950.89       2098.2423      22.2         
     22400   297.7294       24736.782      18689.331      43426.114      830.94651      384.67564      452.00346      1656.1604      0.0044699947  -0.0076288884   0.0044940884   0.0079383238  -0.0076581373   0.0044840201   0.0079069811   22.078525      21.809829     -11.737431     -1.0451524     -5.652856      -1.4188814      58.439436      57.426127      58.859053      2              197528.07      1.2151156      9359.2156      20773.211     -8091.7897      410.5905      -2759.1353      24992.597     -19947.907      2285.5546      22.4         
     22600   295.96993      24999.529      18578.885      43578.414     -1006.4524     -1565.2209     -1503.2456      49.10932       0.0045098155  -0.0091626616   0.0045324283   0.0084503305  -0.009204897    0.0045221878   0.0084148263   16.612119      2.0597331      9.4776197      0.30404018     7.5336983      0.047269959    58.416902      57.409868      58.881986      2              197472.91      1.215455       9346.6291      20725.312     -7678.2031      406.24657     -2850.4429      25000.238     -19950.25       2199.5445      22.6         
     22800   295.0196       24871.853      18519.229      43391.082      210.07579      953.42529     -596.63384      273.4359       0.0045496347  -0.011688038    0.0045773762   0.0084302843  -0.01175688     0.0045669319   0.0083949479  -5.8452481      3.6648466      12.649215      11.218573     -5.0877844      18.106462      58.332003      57.374305      58.819749      2              196855.47      1.2192673      9410.6546      20811.332     -7921.0557      408.79706     -2772.3056      24887.099     -19952.669      2162.125       22.8         
     23000   298.89958      25132.73       18762.787      43895.518      139.04569      568.11998     -103.68268     -47.300224      0.0045894523  -0.014693157    0.004618148    0.0070733645  -0.014802171    0.0046075171   0.0070484656  -14.111376     -25.632068     -26.293327      3.9454556      0.81193626     10.147287      58.33596       57.394264      58.812469      2              196912.94      1.2189115      9327.49        20876.667     -7600.5475      407.60484     -2829.0657      24900.224     -19949.642      2121.5163      23           
     23200   300.11758      24979.151      18839.245      43818.396     -185.49387     -96.695193      153.17443     -612.96086      0.0046292684  -0.017641146    0.0046528328   0.0044567387  -0.017798605    0.0046420418   0.0044468369  -12.290639      10.161793      0.42562194     1.5343865      4.0622367      18.859908      58.394005      57.436681      58.882538      2              197489.55      1.2153526      9432.3979      20830.392     -7886.8969      396.72643     -2813.6058      24971.357     -19951.219      2206.5324      23.2         
     23400   298.47992      24806.943      18736.444      43543.387     -286.21288     -10.834835     -654.81752     -192.98627      0.0046690828  -0.019999133    0.0046928514   0.0022716025  -0.020201822    0.0046818743   0.0022690263   16.765102      18.205706      12.610094     -5.1154548     -5.9472833     -7.7490127      58.426707      57.409336      58.884127      2              197511.41      1.2152181      9277.6282      20865.476     -7852.0071      400.08386     -2869.6177      24935.867     -19950.488      2115.7611      23.4         
     23600   296.79699      24869.583      18630.801      43500.384     -177.16969      301.74019     -238.85716     -594.39209      0.0047088957  -0.021057643    0.0047390793   0.0010710416  -0.021282517    0.0047278852   0.0010704684   4.7077188     -1.596113       2.2881015     -17.05011       2.0155043     -7.4383033      58.391953      57.328985      58.808225      2              196863.55      1.2192172      9257.3154      20664.99      -7630.5573      409.41428     -2786.1652      24907.697     -19953.112      2168.4198      23.6         
     23800   297.838        24656.762      18696.148      43352.91       772.01072      730.20024      429.40548      1156.4265      0.004748707   -0.02118899     0.0047775929   0.00098036205 -0.021416699    0.0047662164   0.00097988181 -17.861951     -24.120443     -13.407897     -4.934261       2.2441509     -17.041897      58.377162      57.333355      58.82851       2              196896.58      1.2190127      9342.0711      20719.878     -8015.2721      427.41721     -2811.7474      24945.995     -19951.581      2182.6671      23.8         
     24000   298.23471      24744.591      18721.051      43465.643     -482.18739     -587.33456     -950.73683      91.509224      0.0047885167  -0.02063769     0.0048166823   0.0021230981  -0.020853623    0.0048051192   0.0021208475  -3.1676686      5.8605644      10.689601     -8.5063953      0.48988037    -8.5014317      58.419098      57.397434      58.841319      2              197301.2       1.2165128      9138.8225      20752.493     -7751.5005      391.49716     -2809.7461      24974.153     -19951.128      2213.2793      24           
     24200   297.5737       24703.98       18679.558      43383.538      831.21686      816.55617      1056.0414      621.053        0.0048283249  -0.02006304     0.0048652157   0.0054216936  -0.020267036    0.0048534188   0.0054070491   14.612487     -0.85978073     18.850115      7.692969      -10.36755      -20.261521      58.458312      57.49635       58.739036      2              197430.1       1.2157186      9230.6885      20609.874     -7768.69        405.43756     -2825.972       25003.344     -19950.701      2226.6706      24.2         
     24400   298.81291      24780.954      18757.346      43538.301      1611.8834      1689.6403      1705.259       1440.7509      0.0048681314  -0.018567607    0.0049158893   0.0086713326  -0.018742149    0.0049038458   0.0086339525  -0.41977987     9.0049437      2.2572198     -18.865122     -7.8413928     -2.3579129      58.491321      57.554908      58.612621      2              197317.19      1.2164142      9354.0595      20820.169     -8082.9734      402.56111     -2766.4361      25000.846     -19947.272      2287.138       24.4         
     24600   299.06302      24940.388      18773.047      43713.435     -305.98409      43.406439     -689.37348     -271.98524      0.0049079364  -0.016676421    0.0049614491   0.011004129   -0.016817038    0.0049491816   0.010944024   -6.7872793      17.944855     -11.226008     -5.2696561     -4.1191076      12.185304      58.513808      57.570328      58.549056      2              197231.81      1.2169408      9219.6307      20832.164     -7606.67        397.1852      -2866.0953      24912.026     -19947.852      2098.0778      24.6         
     24800   297.53446      24836.684      18677.094      43513.778     -152.99941     -303.56758     -49.239881     -106.19077      0.0049477397  -0.014053296    0.0050042088   0.011534184   -0.014152979    0.0049917294   0.011468172    1.5884033     -22.9155        5.8027482     -16.292042     -10.063409      10.186601      58.592722      57.559826      58.520358      2              197364.99      1.2161196      9307.5686      20898.432     -7910.1586      398.22328     -2877.4461      24965.993     -19945.929      2142.6182      24.8         
     25000   296.64045      24778.406      18620.975      43399.381     -82.626878      825.78136     -480.4345      -593.22749      0.0049875415  -0.011320392    0.0050488146   0.011393936   -0.011384956    0.0050361121   0.011329514   -6.705908       1.7185371     -13.048688      2.3640604      12.99678       7.2684263      58.618815      57.577322      58.4712        2              197346.99      1.2162306      9268.8038      20692.679     -7803.8167      414.711       -2798.4374      24953.646     -19949.18       2206.0286      25           
     25200   294.85649      24788.464      18508.991      43297.455     -212.63246     -180.57249     -0.69230845    -456.63259      0.0050273417  -0.0090290016   0.0050877936   0.011110113   -0.00907001     0.0050748945   0.011048849    19.488506      8.2651603      2.8666133     -0.7478132      2.1455744     -3.6938876      58.606383      57.58206       58.487609      2              197376.75      1.2160472      9290.8962      20632.738     -7758.0084      399.67188     -2768.7186      24944.604     -19952.719      2223.1655      25.2         
     25400   298.32771      24844.943      18726.889      43571.832      87.916309     -63.233069      362.32778     -35.345788      0.0050671403  -0.0073807936   0.0051266744   0.010850546   -0.0074081664   0.0051135777   0.010792101    25.613678      6.8289651      3.8611434      13.835586     -20.799619      10.291848      58.49196       57.549648      58.50487       2              196938.61      1.2187526      9330.5763      20807.094     -7864.8008      420.80728     -2910.2652      25011.381     -19949.85       2151.2659      25.4         
     25600   297.99568      24780.344      18706.047      43486.391      904.77704      424.36473      689.94228      1600.0241      0.0051069374  -0.0068312984   0.0051623283   0.0097552155  -0.0068547385   0.0051490492   0.0097079406  -13.765006     -19.643818     -37.806519      6.7244989      7.4133691      6.6883348      58.320856      57.499284      58.558947      2              196372.01      1.2222691      9212.0102      20710.459     -7740.4041      400.84274     -2774.7172      24923.164     -19951.011      2197.4363      25.6         
     25800   298.77044      24759.832      18754.681      43514.513      145.89149      511.07907     -299.82683      226.42224      0.0051467328  -0.0070984602   0.0051920444   0.0090327886  -0.0071237741   0.0051786122   0.008992237   -11.521439      14.096324      11.264849      3.0338219      0.76154067    -6.2017884      58.227513      57.4762        58.679058      2              196380.98      1.2222133      9310.5718      20647.925     -7803.0014      390.35451     -2802.1975      24966.596     -19950.416      2213.9826      25.8         
     26000   296.73786      24609.924      18627.09       43237.014      403.01649      1109.6664      154.18002     -54.796924      0.0051865267  -0.0073081357   0.0052247214   0.0080799779  -0.007334971    0.0052111199   0.0080475097  -29.859607     -8.0865649      19.588217      0.33151986     17.956886     -3.8533007      58.267759      57.479464      58.764566      2              196814.26      1.2195226      9286.9006      20722.969     -7953.1241      404.88353     -2846.9846      24942.611     -19947.332      2148.2949      26           
     26200   299.62325      24727.51       18808.214      43535.724     -516.83929     -742.1357      -767.29217     -41.089981      0.005226319   -0.0079346056   0.0052627989   0.0077504691  -0.0079662521   0.0052489988   0.0077205885  -2.6052363     -7.2196564     -25.111524      6.6823694      5.999339       2.5564122      58.37015       57.475156      58.788301      2              197224.96      1.2169831      9138.4811      20673.479     -7739.3291      400.918       -2806.1557      25008.376     -19948.26       2253.9605      26.2         
     26400   296.21646      25249.385      18594.36       43843.746     -820.44518     -1190.4754     -559.17507     -711.68509      0.0052661097  -0.0089594785   0.0052931118   0.0069916557  -0.008999856    0.0052791526   0.0069673274   21.741888      33.877134      20.786398     -3.6103367      4.8837287      1.8126252      58.445172      57.427188      58.898147      2              197682.32      1.2141675      9208.5811      21021.866     -7590.8723      405.29288     -2852.3638      25007.588     -19950.707      2204.5179      26.4         
     26600   296.82827      24891.464      18632.765      43524.229     -322.99373     -538.72987      399.88947     -830.14079      0.0053058988  -0.0097941855   0.0053332263   0.0063214254  -0.0098424641   0.005319055    0.006301529    1.9079326     -5.683039       8.8616695     -0.59919642     1.8255098     -1.6889442      58.478904      57.28167       58.898234      2              197295.5       1.216548       9347.9335      20807.906     -7799.5937      413.17768     -2881.6659      24952.773     -19949.066      2122.0409      26.6         
     26800   296.11936      24977.661      18588.265      43565.926      448.51624      310.09735      591.78256      443.66883      0.0053456863  -0.010396261    0.005380033    0.0063899589  -0.010450679    0.0053656123   0.0063696296  -25.429115     -26.509962      1.367872      -9.3743878     -2.8544661     -19.18383       58.472317      57.19392       58.824769      2              196725.38      1.2200736      9302.6123      20816.204     -7739.2464      389.53539     -2811.1992      24968.013     -19948.257      2208.5565      26.8         
     27000   296.4849       24744.32       18611.211      43355.531     -297.90551     -2067.9159      569.85014      604.34923      0.0053854723  -0.010263884    0.0054250022   0.0079978466  -0.010316921    0.0054103399   0.0079660333   23.520021     -15.237264      1.5032742     -10.310754     -0.36833004    -5.0389175      58.573565      57.18572       58.771813      2              196860.39      1.2192368      9289.8215      20680.192     -7706.829       389.93713     -2910.8133      24952.262     -19950.25       2091.1989      27           
     27200   299.12672      24881.542      18777.045      43658.587     -36.429712      874.63843     -257.0062      -726.92137      0.0054252566  -0.0093623831   0.0054709053   0.0088380698  -0.0094064857   0.0054559943   0.0087992427   14.268639     -10.295326     -7.1313935      9.9808096      12.222784      20.703067      58.590535      57.318711      58.709962      2              197167.66      1.2173368      9303.7851      20844.108     -7823.8926      395.28931     -2870.8892      24978.661     -19945.52       2162.252       27.2         
     27400   295.64119      24975.093      18558.249      43533.342      24.8038        67.635779      124.55125     -117.77563      0.0054650394  -0.0091005595   0.0055180083   0.0090522059  -0.0091422225   0.0055028399   0.0090114803  -16.09238       9.8130203     -10.347708      2.5347617     -4.1895286      5.3342998      58.531741      57.45938       58.636684      2              197206.75      1.2170955      9236.2738      20704.66      -7551.7512      399.65023     -2816.9762      24955.231     -19951.994      2186.2605      27.4         
     27600   298.2432       24863.578      18721.584      43585.162     -704.5937      -513.84505      98.916105     -1698.8522      0.0055048206  -0.0082003806   0.0055590401   0.00854053    -0.0082341887   0.0055436457   0.008504266    19.297162      23.669432     -8.0054148     -5.8880659      12.477397      7.2687042      58.50087       57.533233      58.628985      2              197330.17      1.2163342      9328.8899      20853.974     -7944.5125      401.32014     -2842.4662      25011.882     -19945.509      2223.9069      27.6         
[...]
    744000   294.92632      25166.711      18513.374      43680.085      125.8458      -297.11485      793.95926     -119.30701      0.13871792    -0.0053654155   0.14737774     0.020745278   -0.0053798611   0.13747911     0.020533025   -10.464498     -4.5535751      8.4016671     -7.2050006      74.959127     -4.8444956      58.152         57.519692      59.169973      2              197916.76      1.2127292      9469.0329      20836.454     -7925.4256      414.14016     -2720.3906      25042.179     -19949.278      2372.5095      744          
    744200   297.46373      24879.257      18672.655      43551.912     -415.68422     -1097.2733     -179.04619      29.266789      0.13875274    -0.0065982813   0.14738963     0.020910538   -0.0066201462   0.13748948     0.020694914   -6.1673912      3.3330348      5.1676268      8.0622521      78.686475      1.4735041      58.172299      57.493817      59.180577      2              197932.25      1.2126343      9249.731       20651.195     -7823.2773      419.38722     -2698.8429      25029.543     -19948.479      2382.2213      744.2        
    744400   300.28545      24925.169      18849.782      43774.951      718.07996     -63.468263      894.81026      1322.8979      0.13878755    -0.0082701994   0.1475297      0.021684331   -0.0083045872   0.13761155     0.02145257     14.974965     -1.7064121      10.097407     -1.7872327      86.637925     -7.0990683      58.155252      57.452365      59.138072      2              197589.57      1.2147374      9249.1104      20902.341     -7959.0558      419.99347     -2721.0691      24978.485     -19944.636      2312.7797      744.4        
    744600   298.33612      24740.158      18727.417      43467.575      956.29193      533.91775      37.559801      2297.3982      0.13882237    -0.0097544877   0.14759416     0.023171808   -0.0098023744   0.13766772     0.022907418    5.2495016     -16.167916     -8.1998389     -8.9015852      86.529296      5.7448829      58.099867      57.514524      59.125298      2              197572.28      1.2148437      9318.0465      20726.554     -8040.5903      398.84375     -2704.7126      24987.153     -19945.137      2337.3037      744.6        
    744800   297.57091      25009.453      18679.383      43688.836      562.27877      743.73709      387.56312      555.53609      0.13885719    -0.010786751    0.14759736     0.025020578   -0.01084535     0.13767051     0.024712688   -35.611901      2.24462       -10.341057     -6.1833643      84.758097     -5.8360547      58.099718      57.551534      59.13678       2              197737.3       1.2138299      9340.3154      20823.556     -7926.5712      411.74055     -2659.1427      24966.125     -19946.57       2360.4129      744.8        
    745000   298.28879      24805.598      18724.446      43530.044     -372.97906     -74.47504      -322.99092     -721.47122      0.138892      -0.012270731    0.14745473     0.026750483   -0.012346638    0.13754621     0.026398945    10.335366      1.3895279     -1.5345777      8.4066252      63.230775      13.31666       58.202593      57.618395      59.207465      2              198554.6       1.2088334      9342.784       20779.966     -8137.6298      399.78548     -2664.7019      25033.189     -19947.794      2420.6925      745          
    745200   298.3569       24945.526      18728.721      43674.247     -316.38758     -429.52924     -637.3602       117.72671      0.13892681    -0.014740235    0.14758054     0.027822078   -0.014849952    0.13765584     0.027442077    6.9664076      35.148399      27.445434     -3.1108629      78.106944      8.1962469      58.242007      57.564687      59.169589      2              198376.87      1.2099165      9305.2193      20918.053     -8044.3934      421.85529     -2674.1832      24968.906     -19949.931      2344.7912      745.2        
    745400   297.7247       24824.369      18689.036      43513.406     -192.46197     -1087.386       363.63249      146.3676       0.13896162    -0.016457548    0.14787522     0.028234672   -0.016594478    0.1379126      0.027843421    2.6357783     -9.3165263     -1.6721674     -12.684349      89.57631       18.226681      58.308276      57.411131      59.06456       2              197721.22      1.2139286      9232.9657      20662.932     -7902.7513      421.6686      -2683.7108      25042.496     -19949.231      2409.5544      745.4        
    745600   298.32776      24950.414      18726.892      43677.306      188.92941      115.37709     -294.16345      745.57458      0.13899643    -0.018084306    0.14805497     0.027309733   -0.018249826    0.13806918     0.026943476    16.3487       -32.489087     -8.4616513     -2.5322941      79.940303      3.344701       58.34953       57.454072      59.008869      2              197822.4       1.2133077      9432.2016      20858.187     -8081.7941      392.71778     -2718.4788      25018.832     -19951.252      2349.1013      745.6        
    745800   300.79652      25192.823      18881.863      44074.686     -434.4997      -592.00462     -658.19007     -53.304411      0.13903124    -0.018665108    0.14834378     0.025762716   -0.0188415      0.13832071     0.025436449    3.0828437      12.607186     -5.5606894     -12.187666      84.768797      11.192802      58.285247      57.518436      58.910649      2              197496.55      1.2153095      9374.0708      20892.865     -7866.0605      402.87657     -2689.1204      25027.944     -19949.753      2389.0711      745.8        
    746000   299.65512      24893.809      18810.214      43704.023     -505.77044     -780.57787     -219.44242     -517.29103      0.13906605    -0.017824637    0.14815133     0.02451678    -0.017985409    0.13815311     0.024221067   -1.2269554     -19.747755     -39.954835     -20.148968      64.320684     -14.321908      58.270918      57.614844      59.006438      2              198100.54      1.2116042      9407.6266      20856.145     -8104.0804      397.79883     -2751.1142      25035.49      -19948.058      2336.3182      746          
    746200   298.29487      24948.258      18724.828      43673.085      90.350602      187.91477     -198.0524       281.18943      0.13910085    -0.015633587    0.14771584     0.024007733   -0.01575708     0.13777374     0.023724078    16.226537      24.978613      2.9716688     -13.353738      66.303322      1.1181879      58.168207      57.659316      59.200195      2              198553.84      1.208838       9318.5456      20781.208     -7961.1719      394.40587     -2655.0818      25018.935     -19948.583      2415.2706      746.2        
    746400   298.60552      24983.06       18744.328      43727.388      48.330937      843.10085     -128.79108     -569.31695      0.13913566    -0.013059594    0.14747188     0.023549991   -0.01314562     0.13756116     0.023276968    5.1167575      4.8640853      7.6497741     -10.453883      89.70967      -1.7317295      58.022941      57.637117      59.316781      2              198371.63      1.2099484      9264.9349      20744.459     -7847.9233      410.70148     -2669.1479      25028.023     -19947.988      2410.8878      746.4        
    746600   297.35318      24933.142      18665.715      43598.857      77.366646     -71.799557      37.475633      266.42386      0.13917046    -0.010499898    0.14743807     0.02347446    -0.010555411    0.13753169     0.023203172   -4.7861266      0.89967708     11.068034     -9.7679092      65.26702      -1.4344288      57.91203       57.588976      59.347175      2              197928.44      1.2126577      9310.9632      20753.947     -7884.8196      410.42144     -2725.5756      25013.92      -19945.714      2342.63        746.6        
    746800   298.34013      24937.666      18727.669      43665.335      273.9019       1099.9239     -365.47728      87.259089      0.13920527    -0.008953537    0.14752349     0.023682273   -0.0089938608   0.13760613     0.023406198   -36.801727     -7.1424603     -9.500618       9.3961188      83.832497     -1.3653111      57.957291      57.592448      59.328225      2              198031.82      1.2120246      9321.9076      20905.708     -8112.5194      392.94401     -2611.688       24990.457     -19949.143      2429.6257      746.8        
    747000   298.17347      25031.125      18717.207      43748.332     -112.8199      -101.66612     -352.3457       115.55211      0.13924007    -0.0085601975   0.14766014     0.024077467   -0.0085970464   0.13772521     0.023792175    5.2570913      24.548195      21.191659      7.8318473      103.46953     -10.407335      58.025967      57.525451      59.287872      2              197901.13      1.212825       9178.1786      20769.506     -7774.9264      420.73556     -2628.469       25014.015     -19947.915      2437.6311      747          
    747200   299.02566      24943.417      18770.702      43714.118     -358.99566     -1451.1582     -211.8203       585.99154      0.13927487    -0.008071376    0.14765608     0.024653142   -0.0081041259   0.13772167     0.024354158    28.737411      1.5492339     -9.6826097     -1.8263008      80.062829      2.4870213      58.086414      57.456612      59.304618      2              197926.11      1.2126719      9306.6618      20801.236     -7934.472       414.29807     -2707.3171      25004.952     -19941.942      2355.693       747.2        
    747400   296.69441      24902.231      18624.362      43526.593      336.97343      1455.2479     -106.2791      -338.04851      0.13930967    -0.0079412727   0.14780637     0.024537726   -0.0079729725   0.13785262     0.024241512   -4.3507146     -2.4545011      11.78374       2.1452471      84.099727      14.435924      58.051397      57.394098      59.259495      2              197441.24      1.21565        9418.5555      20878.9       -8216.0965      405.75181     -2678.6682      25041.571     -19947.783      2415.1196      747.4        
    747600   296.05192      25269.008      18584.031      43853.039     -186.93352     -909.7428       1059.8649     -710.92261      0.13934446    -0.0082376535   0.14777486     0.023075892   -0.0082717705   0.13782517     0.02281367    -21.129433     -24.390145     -25.78501       2.5612373      80.643393      10.824719      58.087201      57.376616      59.290327      2              197605.59      1.2146389      9442.0127      20892.984     -7871.547       404.925       -2739.2289      25086.218     -19946.356      2400.6329      747.6        
    747800   295.5569       25000.314      18552.958      43553.271      56.468963      135.85801      349.59377     -316.04489      0.13937926    -0.0085983946   0.14767388     0.020596101   -0.0086355741   0.13773718     0.02038687     12.579125     -8.8194191      4.189361      -1.65689        94.755052      0.51425349     58.130579      57.434056      59.350741      2              198152.83      1.2112844      9396.4869      20848.577     -8037.2447      393.37127     -2669.1062      25016.481     -19948.252      2399.1234      747.8        
    748000   297.40775      24902.664      18669.141      43571.804      71.884063      173.70173      268.00144     -226.05098      0.13941406    -0.0087215498   0.147664       0.018642875   -0.0087598051   0.13772857     0.018471227   -6.165969       9.684536       13.587816      1.2648674      93.464048     -13.160351      58.142478      57.50769       59.373098      2              198522.24      1.2090305      9489.2887      20716.838     -8145.3302      419.31919     -2651.2651      25021.544     -19947.731      2422.5481      748          
    748200   298.04393      25015.866      18709.075      43724.941     -413.94897     -94.491869     -502.65186     -644.70318      0.13944885    -0.0089962671   0.14785206     0.018581612   -0.0090369779   0.13789242     0.018411083    18.043716      11.793361      21.432183      4.1159272      79.415637     -24.940536      58.175595      57.572289      59.312345      2              198654.97      1.2082227      9339.8346      20956.498     -7953.2022      423.76745     -2753.8447      24953.669     -19950.857      2248.9677      748.2        
    748400   298.56148      24973.965      18741.564      43715.528      136.71663     -2.1584446     -378.86366      791.172        0.13948364    -0.0093819613   0.14829257     0.019978158   -0.0094262491   0.13827612     0.019781214   -3.4347006      5.2848458     -2.0482843      5.9229822      79.286712     -13.042894      58.118209      57.515278      59.147542      2              197711.6       1.2139877      9339.6353      20686.944     -7823.0583      402.50262     -2687.2823      25002.071     -19946.848      2367.9412      748.4        
    748600   295.05742      24888.117      18521.604      43409.721      1299.1293      745.86064      2477.4028      674.12454      0.13951843    -0.01075584     0.14845565     0.022552943   -0.010814102    0.13841813     0.022302386   -17.622958     -11.463868     -28.568098      0.52377274     74.746366     -9.2539954      58.099742      57.486066      59.09357       2              197368.13      1.2161003      9223.7528      20925.88      -8039.0267      403.35115     -2657.4946      24979.472     -19947.818      2374.1597      748.6        
    748800   299.43652      25021.038      18796.492      43817.53      -259.21413     -396.90546     -100.48583     -280.25109      0.13955322    -0.011626322    0.14851238     0.025511792   -0.011694436    0.13846752     0.025191797   -27.758905     -0.37213168     1.9835303     -11.223481      75.777897      1.0646777      58.268093      57.549908      59.081652      2              198119.89      1.2114859      9244.6072      20927.218     -7780.3204      407.24935     -2807.6317      24977.906     -19947.99       2222.2836      748.8        
    749000   299.25817      25092.444      18785.297      43877.74      -345.73587     -1501.1325      650.78512     -186.8602       0.13958801    -0.012145626    0.1485597      0.028149188   -0.012219986    0.13850872     0.027760281    18.491157      21.256777     -3.9999874     -6.8663743      99.038916     -3.8447501      58.367319      57.481819      59.073637      2              198195.58      1.2110232      9305.3737      20912.886     -7877.8934      396.02822     -2705.0122      25007.015     -19945.954      2356.0489      749          
    749200   297.19596      24883.069      18655.846      43538.915      481.76288     -852.78936      1531.3401      766.73794      0.1396228     -0.011402214    0.14865716     0.03059795    -0.011467718    0.13859358     0.030139167    22.146052     -9.9517659      3.2452665     -9.0649337      84.334653      6.8879544      58.325777      57.386522      59.045695      2              197632.64      1.2144727      9372.9852      20738.417     -8080.59        414.96235     -2614.3075      25003.028     -19951.426      2437.294       749.2        
    749400   297.51927      24916.922      18676.141      43593.063     -231.78342     -1829.9889      714.99189      419.64679      0.13965759    -0.010472575    0.14863786     0.032019372   -0.010527798    0.13857677     0.031517438   -5.8310847      0.88307302    -4.4784394     -4.6626882      81.950005      1.8927493      58.325639      57.383485      59.06669       2              197691.98      1.2141081      9337.764       20722.64      -7999.2818      422.34747     -2654.3504      25035.604     -19947.801      2433.4522      749.4        
    749600   297.42539      25098.214      18670.248      43768.461     -1242.3211     -1827.1178     -1075.0909     -824.75456      0.13969237    -0.0093556663   0.14840885     0.032698141   -0.0093997054   0.13837738     0.032174932    5.1133506     -12.280201     -27.458751      2.9525964      88.323269      4.3886449      58.313588      57.422211      59.173934      2              198143.63      1.2113407      9284.7829      20688.013     -7685.8752      409.06996     -2683.9232      25033.87      -19947.725      2402.2225      749.6        
    749800   298.29321      25414.007      18724.724      44138.731      254.61638      697.36571     -847.46033      913.94376      0.13972716    -0.0084013069   0.14825452     0.032288525   -0.0084367968   0.13824298     0.031778207    29.0396        30.779729      21.558262     -3.3591238      81.551861      18.165396      58.199101      57.403612      59.253387      2              197956         1.2124888      9322.9693      20912.203     -7688.0944      434.58304     -2676.4447      25056.479     -19947.688      2432.3464      749.8        
    750000   299.48494      24979.949      18799.532      43779.48       274.84653      93.468486      493.98176      237.08933      0.13976194    -0.0077448666   0.14813788     0.030565311   -0.0077750139   0.1381414      0.030107497   -23.956102     -22.391131     -6.2079739      0.59492995     65.81104       4.1282721      58.094222      57.356683      59.320153      2              197660.2       1.2143033      9440.5907      20751.054     -8038.4247      410.50432     -2612.6668      24975.468     -19946.576      2416.2246      750          
WARNING: Bond/angle/dihedral extent > half of periodic box length (../domain.cpp:1172)
Loop time of 22244.1 on 16 procs for 750000 steps with 21060 atoms

Performance: 2.913 ns/day, 8.239 hours/ns, 33.717 timesteps/s, 710.075 katom-step/s
99.0% CPU use with 16 MPI tasks x no OpenMP threads

MPI task timing breakdown:
Section |  min time  |  avg time  |  max time  |%varavg| %total
---------------------------------------------------------------
Pair    | 12724      | 13627      | 14243      | 334.9 | 61.26
Bond    | 2851       | 2974.6     | 3064.7     | 115.8 | 13.37
Kspace  | 882.01     | 1516.3     | 2539.1     |1121.2 |  6.82
Neigh   | 3330.6     | 3330.8     | 3331.1     |   0.2 | 14.97
Comm    | 254.88     | 256.85     | 258.4      |   6.7 |  1.15
Output  | 102.91     | 102.91     | 102.94     |   0.1 |  0.46
Modify  | 278.65     | 363.61     | 404.7      | 249.7 |  1.63
Other   |            | 71.74      |            |       |  0.32

Nlocal:        1316.25 ave        1376 max        1244 min
Histogram: 1 1 0 2 2 2 6 0 1 1
Nghost:        13514.1 ave       13676 max       13399 min
Histogram: 2 4 2 2 1 1 0 0 1 3
Neighs:         805722 ave      855212 max      742496 min
Histogram: 2 0 0 1 2 2 5 3 0 1

Total # of neighbors = 12891550
Ave neighs/atom = 612.13438
Ave special neighs/atom = 5.8048433
Neighbor list builds = 37150
Dangerous builds = 0

#-------------------Wrap up-------------------
write_restart   ${myid}.restart
write_restart   shear_2_EPON_862_pxld_88.2_replicate_1_FF_PCFF-class2xe.restart
System init for write_restart ...
PPPM initialization ...
  using 12-bit tables for long-range coulomb (../kspace.cpp:342)
  G vector (1/distance) = 0.18162903
  grid = 15 15 18
  stencil order = 5
  estimated absolute RMS force accuracy = 0.021436487
  estimated relative force accuracy = 6.4555344e-05
  using double precision KISS FFT
  3d grid and FFT values/proc = 1690 450
Generated 66 of 66 mixed pair_coeff terms from sixthpower/sixthpower mixing rule
write_data      ${myid}.data
write_data      shear_2_EPON_862_pxld_88.2_replicate_1_FF_PCFF-class2xe.data
System init for write_data ...
PPPM initialization ...
  using 12-bit tables for long-range coulomb (../kspace.cpp:342)
  G vector (1/distance) = 0.18162903
  grid = 15 15 18
  stencil order = 5
  estimated absolute RMS force accuracy = 0.021436487
  estimated relative force accuracy = 6.4555344e-05
  using double precision KISS FFT
  3d grid and FFT values/proc = 1690 450
Generated 66 of 66 mixed pair_coeff terms from sixthpower/sixthpower mixing rule
Total wall time: 6:10:45
