thermo_style    custom step temp pe ke etotal press pxx pyy pzz v_etrue v_eengxy v_eengxz v_eengyz v_etruexy v_etruexz v_etrueyz                 f_sxx_ave f_syy_ave f_szz_ave f_sxy_ave f_sxz_ave f_syz_ave lx ly lz v_dir vol density ebond eangle edihed                 eimp evdwl ecoul elong epair v_Time

restart         ${nsteps} rst1.a.${myid} rst2.a.${myid}
restart         200 rst1.a.${myid} rst2.a.${myid}
restart         200 rst1.a.shear_1_EPON_862_pxld_88.2_replicate_1_FF_PCFF-class2xe rst2.a.${myid}
restart         200 rst1.a.shear_1_EPON_862_pxld_88.2_replicate_1_FF_PCFF-class2xe rst2.a.shear_1_EPON_862_pxld_88.2_replicate_1_FF_PCFF-class2xe
dump            6 all atom 10000 dump.${myid} #every picosecond
dump            6 all atom 10000 dump.shear_1_EPON_862_pxld_88.2_replicate_1_FF_PCFF-class2xe 
dump_modify     6 scale no sort id


#-------------------Run-------------------
run             ${steps}
run             750000

CITE-CITE-CITE-CITE-CITE-CITE-CITE-CITE-CITE-CITE-CITE-CITE-CITE

Your simulation uses code contributions which should be cited:

- Type Label Framework: https://doi.org/10.1021/acs.jpcb.3c08419

@Article{Gissinger24,
 author = {Jacob R. Gissinger, Ilia Nikiforov, Yaser Afshar, Brendon Waters, Moon-ki Choi, Daniel S. Karls, Alexander Stukowski, Wonpil Im, Hendrik Heinz, Axel Kohlmeyer, and Ellad B. Tadmor},
 title = {Type Label Framework for Bonded Force Fields in LAMMPS},
 journal = {J. Phys. Chem. B},
 year =    2024,
 volume =  128,
 number =  13,
 pages =   {3282–-3297}
}

CITE-CITE-CITE-CITE-CITE-CITE-CITE-CITE-CITE-CITE-CITE-CITE-CITE

PPPM initialization ...
  using 12-bit tables for long-range coulomb (../kspace.cpp:342)
  G vector (1/distance) = 0.18106493
  grid = 15 15 15
  stencil order = 5
  estimated absolute RMS force accuracy = 0.022088471
  estimated relative force accuracy = 6.6518776e-05
  using double precision KISS FFT
  3d grid and FFT values/proc = 1690 256
Generated 66 of 66 mixed pair_coeff terms from sixthpower/sixthpower mixing rule
Neighbor list info ...
  update: every = 1 steps, delay = 0 steps, check = yes
  max neighbors/atom: 5000, page size: 100000
  master list distance cutoff = 14
  ghost atom cutoff = 14
  binsize = 7, bins = 9 9 9
  1 neighbor lists, perpetual/occasional/extra = 1 0 0
  (1) pair lj/class2/coul/long, perpetual
      attributes: half, newton on
      pair build: half/bin/newton/tri
      stencil: half/bin/3d/tri
      bin: standard
WARNING: Inconsistent image flags (../domain.cpp:1051)
WARNING: Bond/angle/dihedral extent > half of periodic box length (../domain.cpp:1172)
Per MPI rank memory allocation (min/avg/max) = 19.1 | 19.47 | 19.51 Mbytes
   Step          Temp          PotEng         KinEng         TotEng         Press           Pxx            Pyy            Pzz          v_etrue        v_eengxy       v_eengxz       v_eengyz      v_etruexy      v_etruexz      v_etrueyz      f_sxx_ave      f_syy_ave      f_szz_ave      f_sxy_ave      f_sxz_ave      f_syz_ave          Lx             Ly             Lz           v_dir          Volume        Density         E_bond        E_angle        E_dihed        E_impro         E_vdwl         E_coul         E_long         E_pair         v_Time    
         0   298            24727.007      18706.318      43433.324      650.21516      1181.2609      202.41915      566.96544      0              0              0              0              0              0              0              0              0              0              0              0              0              58.499066      57.166683      59.046423      1              197462.9       1.2155166      9120.1982      20819.52      -7887.8271      402.81916     -2725.6327      24948.657     -19950.729      2272.296       0            
       200   297.35954      24848.87       18666.114      43514.985     -529.44765     -477.1846      -265.49476     -845.6636       3.99992e-05    3.996207e-05   0.0011630065   0.00042314894  3.9961271e-05  0.0011623307   0.00042305943  1.3915564     -25.913505     -15.778978      17.627196     -23.260829     -2.5783163      58.487839      57.220943      59.080676      1              197727.03      1.2138929      9477.9954      20665.731     -7988.6349      386.32404     -2736.7366      24995.892     -19951.701      2307.4548      0.2          
       400   294.94         24961.346      18514.233      43475.579     -480.498       -1865.263       197.57098      226.198        7.99968e-05    7.9755218e-05  0.0040494302   0.00090164958  7.9752038e-05  0.0040412533   0.00090124334  5.7153158      13.565523      30.736827      2.9423343     -9.4299505     -8.3334526      58.455666      57.342136      59.094192      1              198082.12      1.2117168      9496.3809      20618.828     -7930.8055      398.08652     -2690.0244      25018.991     -19950.111      2378.856       0.4          
       600   301.35129      24983.649      18916.688      43900.337      641.06184      801.94066      761.87765      359.36722      0.0001199928   0.00011936901  0.0072384105   0.0018524272   0.00011936188  0.0072123389   0.0018507135  -2.0242148     -10.967344     -0.46205223     2.6469653     -4.391132      -4.0572233      58.405111      57.468869      59.061448      1              198238.31      1.2107621      9445.9947      20665.429     -7876.9741      415.37674     -2686.0923      24964.947     -19945.032      2333.8225      0.6          
       800   299.60192      24923.195      18806.875      43730.07      -158.56112      563.23065     -851.85664     -187.05738      0.0001599872   0.000158814    0.010376957    0.0027987514   0.00015880139  0.010323486    0.0027948422   14.773156      11.096943      17.821141     -6.8427151      0.65886644     5.5855324      58.367367      57.593596      58.948674      1              198161.07      1.2112341      9474.8297      20537.647     -7797.723       405.55491     -2714.4209      24962.896     -19945.589      2302.8865      0.8          
      1000   298.32287      24877.779      18726.585      43604.365      526.27992      578.39061      127.09344      873.35572      0.00019998     0.00019845515  0.011254861    0.0033667967   0.00019843546  0.011191997    0.0033611417  -20.971527      3.937262      -14.114897      2.9538757      26.283999      5.1905016      58.339555      57.611688      58.850667      1              197799.46      1.2134484      9400.0687      20546.866     -7796.373       388.93249     -2665.1808      24953.394     -19949.927      2338.2854      1            
      1200   299.61928      24707.536      18807.964      43515.5        208.54764      520.11503     -119.31244      224.84032      0.0002399712   0.00023816643  0.01054457     0.0036102133   0.00023813807  0.010489364    0.0036037121  -7.6988808      7.278516      -9.581141       11.046199      14.110298     -7.8657111      58.386367      57.60679       58.905056      1              198124.28      1.211459       9336.6279      20576.188     -7938.5539      405.76597     -2763.4523      25038.003     -19947.043      2327.5073      1.2          
      1400   298.3165       24740.295      18726.186      43466.481     -308.51866     -137.88716     -461.09735     -326.57146      0.00027996081  0.00027811006  0.0087167784   0.0039692638   0.0002780714   0.0086790066   0.0039614071   14.52386       1.432891       11.355954      14.790847      9.4535277     -1.5349582      58.395102      57.555165      58.893746      1              197938.33      1.2125971      9478.6631      20480.88      -7869.8729      380.95721     -2760.5887      24982.054     -19951.797      2269.6678      1.4          
      1600   298.38443      25061.503      18730.45       43791.952     -627.86589     -368.89079     -1076.1171     -438.58981      0.00031994881  0.00031802439  0.0070113038   0.00448644     0.00031797383  0.0069868389   0.0044764059   4.5782672      6.9041479      8.9196369      8.6108906     -0.87302653    -4.6085383      58.36609       57.521808      58.863802      1              197624.79      1.2145209      9635.666       20687.388     -7977.9014      390.86933     -2717.4375      24992.784     -19949.866      2325.4807      1.6          
      1800   298.16342      24929.499      18716.576      43646.075      141.7914       156.07508      168.63038      100.66873      0.00035993522  0.00035795524  0.0056324076   0.005644572    0.00035789119  0.0056166049   0.0056287011  -1.7465342     -1.0974856     -7.7534912      21.692523     -13.240438     -9.6404155      58.354323      57.493235      58.82547       1              197358.21      1.2161614      9571.1037      20590.671     -7914.826       406.94763     -2727.1368      24954.127     -19951.389      2275.6017      1.8          
      2000   297.32101      24762.428      18663.696      43426.124      492.70896      1019.0176      559.53365     -100.42435      0.00039992002  0.00039781144  0.0047856719   0.0075868431   0.00039773234  0.004774257    0.0075582078  -3.9620267     -5.6468254     -2.0552593      0.56415487     5.999522      -3.2043667      58.340848      57.481182      58.820946      1              197256.1       1.216791       9515.106       20707.431     -8112.2867      375.29746     -2766.496       24992.977     -19949.601      2276.8801      2            
      2200   298.59471      24885.326      18743.65       43628.975     -968.59357     -1158.3604     -545.01998     -1202.4004      0.00043990323  0.00043730963  0.0034589138   0.0098774486   0.00043721404  0.0034529455   0.0098289855   6.9864376     -11.494793     -0.70357994     12.339388     -3.7036428      9.9517278      58.334186      57.518374      58.798832      1              197286.99      1.2166005      9386.4779      20616.182     -7805.3378      403.60146     -2771.4889      25007.153     -19951.262      2284.4018      2.2          
      2400   296.22512      24776.556      18594.903      43371.459      125.95625     -108.75719     -10.953952      497.57989      0.00047988484  0.00047697921  0.0019047864   0.011562505    0.00047686549  0.0019029746   0.01149617    -0.14306334     3.9457725     -27.251762      15.848118      0.9486426      9.8841175      58.303735      57.528725      58.828608      1              197319.36      1.2164009      9495.9651      20604.243     -8139.7161      402.61692     -2650.5091      25016.684     -19952.728      2413.4468      2.4          
      2600   299.52734      25084.461      18802.194      43886.655     -215.70872     -541.34065     -269.5671       163.78158      0.00051986485  0.00051726778 -0.00024383809  0.012562377    0.00051713404 -0.00024386782  0.012484125   -14.061933      21.184754     -3.263823       13.573384     -3.9302329      10.784269      58.28953       57.468633      58.970988      1              197542.17      1.2150289      9485.9345      20647.155     -7707.5239      382.35936     -2751.4941      24976.485     -19948.455      2276.536       2.6          
      2800   297.24056      25079.866      18658.646      43738.511      470.67677      1475.4442     -129.61404      66.200188      0.00055984326  0.00055795161 -0.00086930662  0.011986082    0.00055779602 -0.00086968469  0.011914818   -21.955027     -20.217656      5.2960239      17.842707     -24.578769      18.872655      58.356309      57.37655       59.097456      1              197875.05      1.2129849      9448.8851      20820.632     -7864.6693      410.20713     -2757.5171      24968.584     -19946.257      2264.8106      2.8          
      3000   299.17794      24851.282      18780.261      43631.542     -87.761965     -1360.9919      1084.7519      12.954022      0.00059982007  0.00059837381 -0.00045779329  0.010544947    0.00059819486 -0.00045789811  0.010489736    26.264619      6.2042226     -4.7403128      20.213326     -8.5351105      3.1303817      58.430643      57.322036      59.222044      1              198356.15      1.2100428      9324.8749      20608.381     -7765.6168      398.77555     -2749.4231      24983.313     -19949.023      2284.8667      3            
      3200   300.14568      24694.329      18841.008      43535.338      1370.399       1034.0567      1499.4571      1577.6832      0.00063979529  0.00063891764  0.00051537871  0.009199322    0.00063871362  0.00051524594  0.009157266    25.925         8.300047       43.363212      16.503069     -1.1753578      4.3319316      58.362238      57.263518      59.242496      1              197990.02      1.2122805      9499.3972      20463.567     -7954.9109      385.83464     -2731.1491      24981.351     -19949.76       2300.4416      3.2          
      3400   296.41744      24675.03       18606.976      43282.006      492.2913       439.63495      48.208064      989.03087      0.0006797689   0.00067991154  0.0012560861   0.0076806725   0.00067968051  0.0012552978   0.0076513263  -31.186319     -2.0547096      13.991427      23.218415     -0.92934167    -4.0977566      58.294618      57.174111      59.171946      1              197216.72      1.2170339      9546.807       20596.376     -8086.2971      397.47677     -2806.0817      24978.116     -19951.367      2220.6666      3.4          
      3600   301.77644      24757.838      18943.376      43701.214      160.33196      199.61439      42.444314      238.93718      0.00071974092  0.00071942921  0.0029489444   0.0062974252   0.00071917054  0.0029446048   0.0062776793   1.4720429     -35.50996      -6.4172602      9.2911672     -9.696676      -6.8701896      58.30259       57.212028      59.047434      1              196959.18      1.2186253      9251.2735      20700.217     -7834.0434      403.49354     -2714.4054      24904.092     -19952.789      2236.8973      3.6          
      3800   296.90374      24725.479      18637.502      43362.982      66.769088     -498.22611      311.56473      386.96864      0.00075971135  0.00075721845  0.0046750833   0.005874826    0.00075693191  0.004664189    0.0058576365  -4.1814887     -11.315454     -11.766079      17.405838      0.026194512   -9.0815554      58.315625      57.376666      58.986824      1              197367.33      1.2161052      9360.6865      20718.792     -7886.3578      391.33437     -2845.2247      24937.93      -19951.681      2141.0242      3.8          
      4000   299.96407      24895.643      18829.608      43725.251     -164.21946     -742.49918     -96.567099      346.40789      0.00079968017  0.00079609955  0.0068418736   0.0048814615   0.00079578283  0.0068185742   0.0048695858   15.53017       36.579497     -6.0491673      7.684138      -3.3179303      19.760483      58.335613      57.446756      58.958685      1              197581.86      1.2147848      9430.9497      20654.455     -7736.959       413.49621     -2882.1327      24964.988     -19949.155      2133.7012      4            
      4200   298.4138       24815.246      18732.293      43547.539      208.00683     -341.70129      234.74796      730.97381      0.0008396474   0.00083688312  0.0082326289   0.0031332596   0.00083653313  0.0081989257   0.0031283612  -7.6989097     -10.534519      3.3356641      2.4992774      20.22952      -2.7934726      58.273484      57.37958       58.897499      1              196936.04      1.2187685      9561.8638      20581.864     -7951.3453      403.04631     -2793.9657      24965.547     -19951.764      2219.8171      4.2          
      4400   300.01463      24845.18       18832.782      43677.962     -890.55696     -1076.151      -1419.952      -175.56794      0.00087961303  0.000876527    0.0081887531   0.0022652742   0.00087614308  0.0081554072   0.0022627123  -16.344092     -3.5544426     -4.6435134      13.147233      9.1971812     -7.3044641      58.333077      57.393175      58.873063      1              197102.34      1.2177402      9365.9096      20633.195     -7745.9877      411.82366     -2825.4707      24954.895     -19949.185      2180.2391      4.4          
      4600   295.96366      24821.168      18578.491      43399.659     -282.05349     -357.89653     -36.724543     -451.5394       0.00091957706  0.00091536591  0.007520307    0.0020326606   0.00091494722  0.0074921704   0.0020305976  -0.55555216     1.3906478     -4.1375409      25.060669     -3.1778822     -1.5437403      58.409416      57.456076      58.916596      1              197722.67      1.2139197      9424.1213      20700.927     -7937.0362      410.96063     -2805.6463      24980.407     -19952.566      2222.1947      4.6          
      4800   296.41169      24898.412      18606.615      43505.027     -57.996621     -93.164774     -335.51225      254.68716      0.00095953949  0.00095503529  0.0073759711   0.0013021337   0.00095457954  0.0073489017   0.0013012867   10.145453      11.246762     -7.1058705      0.53223676    -11.997395      0.88630295     58.467643      57.463843      58.980616      1              198161.63      1.2112307      9456.0389      20789.273     -8017.818       393.32222     -2724.0071      24952.923     -19951.32       2277.5957      4.8          
      5000   299.44523      24844.856      18797.039      43641.895     -158.23953     -198.04578     -169.641       -107.0318       0.00099950033  0.000996122    0.0083168826  -0.00015933747  0.0009956262   0.0082824879  -0.00015935017  14.789695     -1.6884135      18.394803      9.6075261     -6.9696452     -3.0685497      58.459887      57.389219      58.991367      1              197914.1       1.2127455      9449.9257      20702.525     -7903.8236      405.63548     -2823.7053      24966.677     -19952.378      2190.5936      5            
      5200   298.95056      24843.008      18765.987      43608.995      392.36639      549.3328      -258.62408      886.39045      0.0010394596   0.0010376763   0.0099088764  -0.0016147683   0.0010371383   0.0098601054  -0.0016160735  -20.503425     -1.7469256     -12.157547     -0.33536075    -0.80322149    -0.84215615     58.469435      57.294675      58.941243      1              197452.41      1.2155812      9266.7029      20745.591     -7794.2547      400.06244     -2813.3113      24989.983     -19951.766      2224.9059      5.2          
      5400   299.62182      24789.951      18808.124      43598.075     -107.18005     -414.46569     -479.19479      572.12033      0.0010794172   0.0010781529   0.012243732   -0.002644802    0.0010775722   0.012169384   -0.0026483056   14.680222     -2.3324887     -5.9332519      16.43999       2.0093245     -18.172779      58.534082      57.264596      58.983828      1              197709.7       1.2139993      9408.4672      20726.397     -7945.876       394.15964     -2810.7577      24967.957     -19950.396      2206.8033      5.4          
      5600   297.94911      24802.779      18703.123      43505.902     -353.12019      284.8463      -519.23455     -824.97232      0.0011193733   0.0011187612   0.014787634   -0.0026526593   0.0011181359   0.014679363   -0.0026561839   10.414194     -5.1940721      15.331171      18.46531       2.7139003     -5.0991728      58.528681      57.229958      59.001208      1              197630.09      1.2144883      9337.0352      20753.27      -7887.0595      385.93884     -2808.6822      24966.321     -19944.045      2213.5944      5.6          
      5800   299.38145      24868.94       18793.036      43661.976     -1.0606913     -188.27247      324.67827     -139.58788      0.0011593277   0.0011590334   0.0171263     -0.0023811973   0.0011583623   0.016981298   -0.0023840369   8.4438114     -10.127372     -4.1921498      15.368016      16.802068      0.9285884      58.446563      57.214331      58.952775      1              197136.96      1.2175263      9436.404       20672.268     -7881.1871      396.27262     -2739.3294      24933.329     -19948.816      2245.183       5.8          
      6000   297.71858      24757.841      18688.652      43446.494     -571.08705     -244.278       -513.73816     -955.24499      0.0011992806   0.0011983155   0.018620747   -0.0016707411   0.0011975981   0.018449504   -0.0016721384  -6.4931248     -12.703733      6.314597       3.9633635      9.4242718     -11.745006      58.386474      57.247018      58.923564      1              196949.15      1.2186873      9482.7867      20575.302     -7856.4774      382.10447     -2850.0472      24973.594     -19949.421      2174.1252      6            
      6200   297.75662      24975.341      18691.04       43666.381      110.69239     -217.87201      660.45393     -110.50476      0.0012392318   0.0012349421   0.01904686    -0.00065488025  0.0012341802   0.018867739   -0.00065509478  2.2032231     -11.476477     -13.789861      4.9847996      20.34205       6.3301337      58.3025        57.400786      58.92495       1              197198.79      1.2171446      9468.6735      20776.768     -7936.591       395.31217     -2749.7759      24969.482     -19948.528      2271.1788      6.2          
      6400   297.36348      24911.68       18666.361      43578.042     -540.66822      164.2826      -675.1909      -1111.0964      0.0012791815   0.0012715752   0.018143513    0.00059690149  0.0012707674   0.017980883    0.00059672341 -12.91886       13.040319     -10.784606      16.533261      7.1012155     -3.2089828      58.18485       57.54541       59.005181      1              197565.34      1.2148864      9402.8417      20628.219     -7817.0978      385.1781      -2698.0274      24958.493     -19947.926      2312.5393      6.4          
      6600   299.81588      24732.439      18820.306      43552.745      592.62154      738.49793      876.22854      163.13816      0.0013191296   0.0013092016   0.016723857    0.0019280507   0.0013083454   0.016585553    0.0019261943   3.9578405      16.217339     -0.70486635     6.079389       11.003384     -1.0094122      58.133499      57.638164      59.127384      1              198118.61      1.2114937      9344.375       20738.428     -7973.3165      389.74703     -2741.6338      24924.194     -19949.355      2233.2056      6.6          
      6800   299.87421      24596.285      18823.967      43420.253     -234.61208      856.27213     -80.880004     -1479.2284      0.001359076    0.0013490881   0.014411028    0.0031356335   0.0013481789   0.014308176    0.0031307276   1.8435717      16.549177      30.896804     -3.3436902      4.0228343     -0.47463121     58.050221      57.629032      59.112712      1              197754.37      1.2137251      9360.7942      20546.992     -7925.3602      380.67962     -2763.4727      24942.803     -19946.151      2233.1801      6.8          
      7000   298.19142      24812.346      18718.334      43530.68       101.236        810.55472     -1130.109       623.26225      0.0013990209   0.0013910991   0.011900374    0.0042641319   0.0013901324   0.011830122    0.0042550662  -22.044801      13.576676     -3.642836      -1.2620859      5.189281      -0.64548847     58.037162      57.532424      59.022738      1              197078.02      1.2178905      9350.7496      20751.349     -7781.8131      406.24543     -2890.8009      24923.569     -19946.953      2085.8151      7            
      7200   299.87389      24784.465      18823.947      43608.413      285.99581      441.53596     -10.17289       426.62434      0.0014389642   0.0014343354   0.010128403    0.0052169611   0.0014333077   0.010077454    0.0052033999  -18.213794     -1.577549       5.6533374      16.947898     -14.670854      6.3739837      58.102888      57.392412      58.907778      1              196437.7       1.2218604      9434.5456      20769.222     -8016.7586      401.90124     -2824.4713      24967.179     -19947.153      2195.5548      7.2          
      7400   296.31443      24892.618      18600.51       43493.128     -173.79852     -208.71543     -298.30115     -14.378999      0.0014789059   0.0014734744   0.010138666    0.0056203218   0.0014723899   0.010087614    0.0056045867  -23.20504      -30.383825     -17.092285      7.4012856     -15.313677      6.283529       58.283148      57.419815      58.929497      1              197213.9       1.2170513      9460.3002      20768         -7973.4499      403.93591     -2781.0398      24961.545     -19946.673      2233.8321      7.4          
      7600   297.58413      25024.722      18680.212      43704.934     -1076.6291     -1128.4787     -1458.5961     -642.81244      0.001518846    0.0015112647   0.010321176    0.0058958435   0.0015101239   0.010268276    0.005878531    7.1653769     -1.0792961      16.804592      11.276699      7.9182999     -9.2502251      58.462424      57.497067      58.916281      1              198042.24      1.2119608      9375.2758      20606.507     -7646.6488      401.37387     -2799.8918      25033.32      -19945.215      2288.214       7.6          
      7800   298.77872      24641.891      18755.2        43397.092      266.14602      269.40873      505.46369      23.565655      0.0015587845   0.0015517696   0.0098041061   0.0066111617   0.0015505668   0.0097563577   0.0065894038   20.784386      21.829779      18.436562      18.901575      5.9661378     -5.478518       58.466812      57.469842      58.834196      1              197687.52      1.2141355      9496.9906      20551.233     -8075.6673      391.1245      -2763.6412      24989.527     -19947.675      2278.2107      7.8          
      8000   299.50718      24805.175      18800.928      43606.103      651.74807      962.33982      329.93816      662.96623      0.0015987214   0.0015924154   0.0089627367   0.0075545072   0.0015911489   0.0089228097   0.0075261148  -3.7904233     -10.35675      -23.014659      19.960764      5.2810358     -1.1781265      58.421531      57.438915      58.757869      1              197171.98      1.2173101      9385.1929      20845.823     -8062.244       383.46459     -2845.1165      25045.236     -19947.182      2252.9383      8            
      8200   297.03649      25092.079      18645.836      43737.915     -1199.3231     -601.73458     -1708.3823     -1287.8524      0.0016386567   0.0016328006   0.0077740054   0.0079156442   0.001631469    0.0077439435   0.0078844799  -18.857987      3.6960532     -3.5925281      16.470183     -0.64362267     6.7036897      58.47184       57.418694      58.760718      1              197281.86      1.2166321      9431.1179      20899.116     -7868.0778      400.94411     -2828.3079      25003.312     -19946.025      2228.979       8.2          
      8400   298.44658      24799.253      18734.351      43533.603      165.11985      186.17361      467.49574     -158.30982      0.0016785904   0.0016734268   0.0067121331   0.0077553151   0.0016720281   0.006689707    0.0077253972   9.6375453     -10.021125     -0.99256049     7.2231446     -2.8400395     -0.4980412      58.570174      57.39118       58.768241      1              197544.24      1.2150162      9397.6634      20798.07      -8081.1982      401.11864     -2740.0888      24972.43      -19948.742      2283.5992      8.4          
      8600   299.80933      24828.922      18819.894      43648.817     -375.94618     -379.72015      412.88776     -1161.0061      0.0017185225   0.0017127359   0.0046185856   0.0083553976   0.0017112709   0.0046079527   0.0083206845   4.1729964      10.208638     -9.1620948      17.49693       10.483393     -8.4693589      58.648201      57.409082      58.844367      1              198125.42      1.211452       9312.1426      20648.25      -7676.0305      400.98151     -2864.9742      24957.26      -19948.707      2143.5786      8.6          
      8800   298.25592      25065.561      18722.383      43787.944     -331.47498     -659.92732      322.96363     -657.46126      0.001758453    0.0017547073   0.0020035985   0.0098794783   0.0017531696   0.002001594    0.0098309953   13.320322      4.8756898      27.490815      7.2911083     -4.1996014     -5.2244363      58.64098       57.339056      58.795471      1              197694.98      1.2140897      9358.6842      20730.025     -7695.9327      407.24878     -2759.5819      24973.739     -19948.622      2265.5356      8.8          
      9000   297.53         24795.6        18676.815      43472.415      903.73031      853.36151      521.93783      1335.8916      0.0017983819   0.0017946393   0.0011978936   0.010806579    0.0017930308   0.0011971767   0.010748605    8.5177101     -26.338755      4.7579078      8.7888752     -22.8908        13.811674      58.641836      57.337383      58.689018      1              197334.16      1.2163096      9405.2806      20889.747     -8191.4426      394.87262     -2708.4432      24954.904     -19949.319      2297.1423      9            
      9200   300.01512      24900.896      18832.813      43733.709      23.794705      1695.9878     -695.52208     -929.08162      0.0018383093   0.0018322301   0.0013528972   0.011050091    0.0018305536   0.0013519829   0.010989485    6.6472245     -7.0535386     -19.895748     -0.19937996    -10.953426      7.4822725      58.534143      57.409043      58.635576      1              197038.35      1.2181356      9276.0253      20670.007     -7757.802       383.64744     -2722.7725      24998.749     -19946.958      2329.0183      9.2          
      9400   296.29602      24836.904      18599.354      43436.258      469.87143      1051.9669      627.75799     -270.11063      0.001878235    0.0018687261   0.003643553    0.010442992    0.0018669822   0.0036369313   0.010388841   -11.113882      5.1141431     -7.776027       25.252498     -24.693198      2.9285935      58.493341      57.511499      58.674376      1              197382.93      1.2160091      9474.9372      20842.845     -8094.6863      396.97597     -2804.7099      24970.25      -19948.708      2216.8321      9.4          
      9600   296.08192      24978.05       18585.915      43563.965      118.31959     -201.56226      647.6969      -91.175866      0.0019181592   0.0019052701   0.0069692498   0.0094956084   0.0019034573   0.0069450768   0.0094508085  -2.6219264      8.7048558     -12.384076      12.794959      2.0806017      17.607038      58.465497      57.608577      58.752199      1              197884.11      1.2129293      9511.5586      20707.18      -7866.8449      414.84401     -2826.5479      24987.023     -19949.162      2211.3128      9.6          
      9800   295.4701       24771.282      18547.509      43318.791     -25.888215      547.87719      408.63742     -1034.1793      0.0019580817   0.0019451654   0.0097728299   0.0073790984   0.001943276    0.0097253846   0.0073520061  -1.222713       11.669118      0.29205871     5.7772209      1.4708507      5.2929461      58.387491      57.602585      58.796861      1              197749.75      1.2137535      9363.8412      20684.787     -7923.5421      413.52162     -2764.8093      24943.398     -19945.914      2232.6744      9.8          
     10000   298.17373      24904.307      18717.224      43621.531      62.338231      691.14176     -646.78716      142.6601       0.0019980027   0.0019889118   0.011159305    0.0063054097   0.0019869365   0.011097499    0.0062856137   1.8462706      33.813861      19.723512      1.4306893      14.909239     -9.8353726      58.334511      57.485313      58.801693      1              197184.28      1.2172342      9429.864       20814.033     -7981.585       391.50783     -2771.5967      24972.32      -19950.235      2250.4874      10           
     10200   298.29398      25023.187      18724.772      43747.959     -326.36981     -71.876487     -866.01101     -41.221934      0.002037922    0.0020343837   0.011679025    0.0049987004   0.0020323172   0.011611352    0.0049862484  -6.0821696     -1.6705479      1.4874698      5.521496       6.0336042      3.9096823      58.334778      57.324422      58.788925      1              196590.6       1.2209101      9352.9464      20863.495     -7784.0762      417.37765     -2824.8121      24948.924     -19950.667      2173.4448      10.2         
     10400   299.37173      24708.818      18792.426      43501.244      66.200736      795.80593     -769.23249      172.02878      0.0020778398   0.0020767163   0.012068354    0.0046196348   0.002074563    0.011996112    0.0046089971  -16.051173     -14.063609     -23.352665      4.9068286     -0.90476334    -12.995325      58.364859      57.256991      58.822269      1              196572.03      1.2210254      9365.6832      20725.519     -7988.0157      386.23625     -2815.7614      24982.317     -19947.16       2219.3953      10.4         
     10600   295.80345      24866.409      18568.434      43434.843     -907.03396     -735.47755     -998.18032     -987.44401      0.002117756    0.0021161202   0.012191404    0.0048497753   0.0021138844   0.012117688    0.0048380531  -8.6658852     -8.9635094     -0.55674116    -9.6025453      1.3053224     -0.3849415      58.445161      57.271409      58.959902      1              197352.75      1.2161951      9345.2932      20728.746     -7764.1664      409.8963      -2860.0193      24956.467     -19949.808      2146.6397      10.6         
     10800   298.77382      24608.459      18754.893      43363.351      355.87217     -50.865703     -288.88005      1407.3623      0.0021576706   0.0021565191   0.012890436    0.005540831    0.0021541972   0.012808061    0.0055255371  -5.8284076      8.294166       28.235943      20.281798     -7.2102342     -11.136499      58.554155      57.258867      58.916365      1              197531.52      1.2150944      9265.9507      20608.175     -7888.3776      400.55259     -2811.708       24982.826     -19948.96       2222.1575      10.8         
     11000   297.8528       24827.827      18697.078      43524.905      608.79495     -193.07354      680.90804      1338.5504      0.0021975835   0.0021972207   0.013035135    0.0068395996   0.0021948104   0.012950909    0.0068163156   19.70705      -2.9692827      11.759454      5.1141195      8.6926113     -3.1762472      58.635388      57.238901      58.778199      1              197272.87      1.2166875      9396.9156      20694.996     -7895.9024      409.21561     -2865.5879      25032.199     -19944.009      2222.6025      11           
     11200   299.06785      24716.509      18773.35       43489.859     -28.466706     -849.04918      102.98616      660.66291      0.0022374949   0.0022359868   0.012678981    0.0082193886   0.0022334907   0.012599276    0.0081857934  -7.4209353     -7.5578394     -9.3951312      16.166574      6.6416898      5.1403385      58.710825      57.26919       58.672064      1              197274.34      1.2166785      9343.2686      20672.054     -7945.3152      412.42799     -2802.8419      24982.168     -19945.252      2234.0737      11.2         
     11400   296.87446      25008.666      18635.665      43644.331     -210.81374     -143.44902     -184.78874     -304.20345      0.0022774047   0.0022735044   0.012312712    0.0092063192   0.0022709239   0.012237527    0.0091641994   32.286705     -7.069879      -6.8592728      31.025262     -1.1661974      4.3499584      58.686527      57.329914      58.58727       1              197116.49      1.2176527      9383.3739      20782.173     -7771.9771      419.0749      -2835.451       24978.18      -19946.707      2196.0214      11.4         
     11600   297.5055       24917.498      18675.277      43592.775     -322.68919     -700.97809     -270.98545      3.8959648      0.002317313    0.0023097386   0.011344384    0.009216743    0.0023070753   0.011280519    0.009174528   -6.4577281     -4.3799831     -31.010532      9.8627633      7.1911205      9.8331734      58.593811      57.420553      58.594115      1              197139.26      1.2175121      9443.1004      20811.786     -7942.1441      414.95009     -2848.8961      24986.825     -19948.123      2189.8057      11.6         
     11800   299.97933      24668.618      18830.566      43499.185     -512.4755      -1027.9413      230.27892     -739.76415      0.0023572196   0.0023500449   0.0092346157   0.0093468683   0.0023472878   0.0091922374   0.0093034566  -1.8523077      33.555247      1.1274964      13.463248      9.575653      -3.50988        58.52534       57.408743      58.670961      1              197126.58      1.2175905      9234.5547      20660.921     -7801.5576      389.13117     -2845.3096      24978.168     -19947.289      2185.5693      11.8         
     12000   297.00725      24990.136      18644          43634.136     -193.15826      90.645417     -127.44345     -542.67676      0.0023971246   0.0023906612   0.0063756763   0.0092222163   0.0023878081   0.0063554376   0.0091799514  -13.812644     -6.0067848     -9.2156785      9.4910208      3.0842471      11.333354      58.556295      57.389888      58.858468      1              197796.19      1.2134685      9309.929       20795.073     -7740.7579      406.51842     -2836.7334      25001.603     -19945.496      2219.3732      12           
     12200   302.08015      24905.462      18962.441      43867.903     -213.26341     -292.12783     -703.27444      355.61203      0.002437028    0.0024327842   0.0044298277   0.008932947    0.0024298298   0.0044200448   0.0088932843   19.080032      11.831495      11.177202      17.175132     -11.395784     -14.328172      58.530625      57.336129      58.982168      1              197939.41      1.2125905      9238.2019      20794.864     -7790.4621      411.40895     -2836.13        25036.12      -19948.541      2251.4491      12.2         
     12400   298.05785      24917.248      18709.949      43627.197      734.70487      766.34067      1036.4792      401.29476      0.0024769299   0.0024787896   0.0034395301   0.0089434057   0.0024757224   0.0034336285   0.0089036503  -9.4601068      13.511912     -8.6490788      15.106426     -10.810298      5.1092794      58.45873       57.194481      59.052922      1              197444.43      1.2156303      9281.4411      20805.736     -7838.4021      383.88734     -2779.7335      25014.972     -19950.653      2284.5857      12.4         
     12600   298.39664      24892.993      18731.216      43624.209     -164.4867       706.37517      360.56155     -1560.3968      0.0025168301   0.0025241385   0.0027467963   0.0081708795   0.0025209582   0.0027430308   0.0081376786   16.218343     -4.1547867      30.270173      25.405889      4.1327787      12.113598      58.389583      57.072832      59.109826      1              196981.06      1.2184899      9150.696       20730.531     -7680.8551      413.48914     -2761.1412      24991.106     -19950.834      2279.1316      12.6         
     12800   297.77731      24820.081      18692.339      43512.42       353.42595     -296.06782      524.89046      831.45521      0.0025567288   0.0025639374   0.0020656174   0.006649831    0.0025606561   0.002063487    0.0066278184  -10.869538     -39.146465     -1.5485048      12.321412     -2.2829797      12.730112      58.341607      57.078768      59.08374       1              196752.82      1.2199034      9332.6899      20748.201     -7885.5189      409.91316     -2790.0332      24954.094     -19949.265      2214.7959      12.8         
     13000   298.84525      24756.422      18759.377      43515.799      854.85474      974.88901      688.90427      900.77095      0.0025966258   0.0025965067   0.0023117067   0.0048798369   0.0025931416   0.0023090388   0.0048679691  -22.637412     -14.6613       -15.425908      17.209859     -7.8106624     -4.7727596      58.357704      57.243465      59.081564      1              197367.7       1.2161029      9359.6308      20741.127     -8008.4967      398.42753     -2750.2707      24968.916     -19952.912      2265.7339      13           
     13200   296.60877      24911.333      18618.987      43530.319     -975.98877     -971.86651     -699.32762     -1256.7722      0.0026365213   0.002629633    0.0027646601   0.0036219666   0.0026261816   0.0027608454   0.0036154231  -8.9778922      10.932322      18.299898      10.400544     -2.2867919     -5.3160235      58.465652      57.391923      59.084757      1              198256.31      1.2106522      9175.448       20763.127     -7730.5869      409.39745     -2808.3368      25048.314     -19946.03       2293.9468      13.2         
     13400   298.82841      24700.186      18758.32       43458.506      864.46828      1153.6417      314.75718      1125.006       0.0026764152   0.0026681449   0.0035365059   0.0036439427   0.0026645917   0.0035302671   0.0036373197   44.164317      33.512947      23.034861      12.534531     -2.5769992     -10.11401       58.44855       57.42055       58.978491      1              197940.54      1.2125835      9312.8987      20757.921     -8099.5356      422.37317     -2726.409       24984.731     -19951.793      2306.5288      13.4         
     13600   299.28688      24829.523      18787.099      43616.623      574.91051     -407.88126      1033.2459      1099.3668      0.0027163075   0.0027106566   0.0044125074   0.0043972696   0.0027069893   0.0044028009   0.0043876299  -18.086373     -8.4172806     -11.528746      14.323595      0.68672173    -18.917166      58.380136      57.363592      58.828634      1              197010.88      1.2183055      9280.0875      20733.205     -7857.0566      429.12387     -2758.1672      24951.636     -19949.305      2244.1637      13.6         
     13800   297.56949      24873.946      18679.294      43553.24       498.36442      1245.6422     -165.42266      414.87376      0.0027561982   0.002751154    0.0056259424   0.0056356631   0.0027473765   0.0056101759   0.0056198422  -15.65888      -4.6311917     -29.8194        16.558825     -11.926561      3.6826576      58.362698      57.350351      58.798516      1              196805.76      1.2195753      9339.5638      20827.644     -7925.0069      411.68886     -2809.6294      24972.652     -19942.965      2220.0571      13.8         
     14000   297.62888      24748.605      18683.022      43431.627      424.82581      907.05347     -375.82011      743.24406      0.0027960873   0.0027917392   0.0073726566   0.0066826636   0.0027878495   0.0073456114   0.0066604336  -16.706022      1.0852581     -6.2221573      17.638103      1.2686565     -0.15110295     58.452484      57.335691      58.87741       1              197322.55      1.2163812      9251.9441      20799.548     -7962.5292      427.02052     -2850.9853      25030.374     -19946.766      2232.622       14           
     14200   297.11717      24948.627      18650.9        43599.527     -523.76765     -1044.0929     -658.46987      131.2598       0.0028359748   0.0028359047   0.0088010529   0.0075126657   0.0028318911   0.0087625494   0.0074845862   9.3411657      31.470008      6.6589953      23.047862      4.0951116      4.9959488      58.594972      57.249083      58.930807      1              197683.89      1.2141578      9183.1621      20836.985     -7651.7294      422.00508     -2876.2151      24980.867     -19946.447      2158.2046      14.2         
     14400   300.56914      24774.211      18867.59       43641.802      643.05513      1098.1151      597.57628      233.47399      0.0028758607   0.0028848112   0.0099128574   0.0083637772   0.0028806581   0.0098640474   0.0083289946  -3.1113456     -16.169037      1.3375193      4.0761774      6.7554556     -7.5548667      58.657367      57.071183      58.961458      1              197382.05      1.2160145      9375.8318      20669.798     -7950.1653      418.87165     -2819.3948      25025.724     -19946.455      2259.875       14.4         
     14600   297.651        24737.689      18684.41       43422.099      563.48427      1215.8057      577.33625     -102.68919      0.0029157451   0.0029296616   0.010596673    0.0094658066   0.0029253785   0.010540921    0.0094212866  -2.4626355     -13.751304      5.4049281      5.3332459     -5.4289864      4.0645647      58.752076      56.977993      58.962344      1              197380.89      1.2160217      9373.1923      20672.071     -7968.7586      402.65993     -2762.6259      24964.118     -19942.968      2258.5239      14.6         
     14800   297.25379      24915.922      18659.476      43575.398      1049.5608      141.63275      1648.4843      1358.5652      0.0029556278   0.0029695761   0.01145443     0.0095844479   0.0029651757   0.011389325    0.0095388084   9.8305801     -1.8026351      6.1992009      19.035477      2.835593       6.6161622      58.814565      56.982167      58.955504      1              197582.38      1.2147816      9405.4282      20794.201     -7906.4489      400.87977     -2786.1561      24952.792     -19944.773      2221.8627      14.8         
     15000   300.17686      24824.974      18842.965      43667.94      -287.89966      25.938276     -1171.3306      281.69337      0.002995509    0.0030088496   0.012306842    0.0088315631   0.003004332    0.012231729    0.0087927929   20.509982      1.8681272      4.2802933      9.1913395      6.8708181      12.170719      58.810661      56.998373      58.958894      1              197636.81      1.214447       9285.0448      20783.473     -7879.1642      397.87558     -2799.7963      24984.41      -19946.869      2237.745       15           
     15200   299.35837      24771.518      18791.587      43563.105      126.05254     -267.13671      999.34914     -354.05481      0.0030353885   0.0030451929   0.011039276    0.0073936688   0.0030405657   0.010978788    0.0073664696   25.691678     -26.253556     -4.0674442      12.954748      22.429743      0.40628121     58.63477       57.069021      58.923671      1              197172.09      1.2173094      9393.5717      20760.626     -8025.3793      406.09302     -2783.0584      24964.822     -19945.156      2236.6072      15.2         
     15400   297.91538      24840.017      18701.006      43541.023      702.13797      1095.4932      553.09873      457.82199      0.0030752665   0.0030766679   0.008287409    0.0063590602   0.0030719446   0.008253257    0.0063389267  -28.520645      3.8008442      11.904002      16.804048      11.525119     -5.2409763      58.500184      57.228416      58.905216      1              197207.17      1.2170928      9368.146       20783.797     -8018.7584      410.27669     -2798.6528      25038.174     -19942.966      2296.5555      15.4         
     15600   298.96282      24746.465      18766.757      43513.222     -478.19008     -134.32547      104.08088     -1404.3257      0.0031151429   0.0031112123   0.0055687616   0.0055229491   0.0031063825   0.0055533134   0.0055077536  -12.232445      4.0214444      10.406286      22.76106      -3.0238637     -6.6078677      58.456148      57.327966      58.822469      1              197124.22      1.217605       9405.2203      20700.823     -7991.4074      408.59231     -2825.7538      24995.616     -19946.625      2223.2371      15.6         
     15800   301.37953      24670.488      18918.461      43588.948      351.63944      235.57023      222.56769      596.78042      0.0031550177   0.0031490192   0.0047330638   0.0053376182   0.0031440714   0.0047218981   0.0053234236  -19.606875      2.5402189     -34.917835      25.08431      -19.808005     -1.8993287      58.504607      57.365836      58.808404      1              197370.75      1.2160842      9261.8974      20689.496     -7911.6025      405.14038     -2804.9938      24978.384     -19947.834      2225.5562      15.8         
     16000   297.01147      24912.501      18644.265      43556.766     -146.3787       5.6443292      228.22095     -673.00139      0.0031948909   0.0031897385   0.0046775165   0.0051984712   0.0031846621   0.0046666109   0.0051850058   7.6514339      24.004994     -9.337491       13.720828     -0.60005764     5.3040215      58.551743      57.350395      58.885993      1              197737.14      1.2138309      9187.6664      20753.793     -7647.7831      406.07547     -2824.7585      24984.301     -19946.793      2212.749       16           
     16200   298.53257      24853.064      18739.749      43592.812     -433.50258     -1291.146       505.59548     -514.9572       0.0032347625   0.003232483    0.0049864289   0.0055414074   0.0032272697   0.0049740379   0.0055261102   12.547141      1.1050738      23.143074      23.481081     -4.6457201     -14.777905      58.559926      57.299422      58.907012      1              197659.53      1.2143075      9334.2232      20851.769     -7950.8873      409.26987     -2844.1707      24999.305     -19946.445      2208.6892      16.2         
     16400   297.44198      24884.795      18671.29       43556.085     -227.15912     -812.86909      134.66526     -3.273533       0.0032746325   0.0032752537   0.0049730531   0.0059161929   0.0032699017   0.0049607284   0.0058987609   10.120292     -13.832704     -14.034695      4.708929       6.2597907      7.4570988      58.458655      57.249321      58.88857       1              197083.45      1.2178569      9260.499       20846.844     -7888.3396      382.99077     -2737.1999      24965.62      -19945.619      2282.8005      16.4         
     16600   298.89941      24894.954      18762.776      43657.731     -405.35246      209.83929      207.6376      -1633.5343      0.003314501    0.0033131237   0.0050310172   0.006041835    0.0033076474   0.0050184039   0.0060236563  -19.138036     -5.4108572      1.6399142      21.488618     -5.4513956     -8.7359648      58.421047      57.28512       58.94836       1              197279.93      1.216644       9271.273       20649.268     -7618.4517      397.05973     -2861.2436      25003.337     -19946.288      2195.805       16.6         
     16800   298.3301       24879.414      18727.039      43606.453      202.94777      1274.536      -186.37814     -479.31458      0.0033543678   0.0033495668   0.0058976784   0.0069250511   0.0033439695   0.0058803552   0.0069011831   1.7476356     -4.1513749     -14.702011      20.985169     -11.902663      4.4154537      58.42039       57.34453       59.022368      1              197730.23      1.2138732      9167.888       20822.669     -7814.5925      417.45232     -2756.3751      24987.024     -19944.652      2285.997       16.8         
     17000   299.42349      24937.442      18795.675      43733.117     -116.83654     -1924.7581      1809.609      -235.36052      0.0033942331   0.0033902907   0.0067429492   0.0074101518   0.0033845566   0.0067203172   0.0073828315   5.370921       20.942939      24.370567      23.970282      8.0674553     -3.6706686      58.413343      57.33018       59.045861      1              197735.58      1.2138404      9286.95        20732.241     -7796.2808      400.06251     -2727.8587      24989.131     -19946.802      2314.4701      17           
     17200   298.02512      24773.461      18707.895      43481.356      140.84697      636.60452      306.12903     -520.19265      0.0034340967   0.0034345725   0.0075823241   0.0086634841   0.0034286879   0.0075537228   0.0086261715   4.358789      -0.39619491     3.8235397      38.287296      3.400854       0.80714083     58.398007      57.256795      58.985026      1              197227.21      1.2169692      9266.3791      20884.156     -8018.7468      414.59299     -2808.2619      24978.886     -19943.544      2227.0803      17.2         
     17400   297.88887      24974.892      18699.342      43674.233     -425.75405     -301.21986      67.469792     -1043.5121      0.0034739588   0.0034753211   0.0084546181   0.010487714    0.0034692961   0.0084190779   0.0104331     -19.520113     -19.232976     -7.8204823      18.578499      3.8874633     -3.5138333      58.416129      57.243417      58.970659      1              197194.28      1.2171724      9226.9987      20907.651     -7770.6503      409.83304     -2837.5486      24984.473     -19945.866      2201.0588      17.4         
     17600   296.84662      24763.238      18633.917      43397.154      90.591683      618.02874      126.31571     -472.56941      0.0035138193   0.0035141685   0.010170076    0.013511166    0.0035080083   0.010118709    0.013420704   -0.38006616    -3.8040451     -6.2838868      24.432459     -7.8074625      7.8519453      58.500572      57.26131       59.008316      1              197667.2       1.2142603      9193.796       20747.794     -7847.705       410.50578     -2777.828       24982.428     -19945.754      2258.8466      17.6         
     17800   299.70283      24876.094      18813.21       43689.303      257.88098      639.49274      812.15955     -678.00933      0.0035536782   0.0035519681   0.012396723    0.016893153    0.0035456748   0.012320513    0.016752051    31.403856      19.05857       9.0812101      26.785148      7.5569742      5.304845       58.551917      57.29571       59.056763      1              198122.07      1.2114725      9246.1191      20831.157     -7857.116       403.70568     -2798.1335      24999.266     -19948.904      2252.228       17.8         
     18000   299.60465      24930.547      18807.046      43737.593     -167.10544     -712.2932      -14.141909      225.11878      0.0035935355   0.0035918582   0.013996333    0.018463217    0.0035854229   0.013899289    0.018294841   -11.579554     -14.14816      -2.3851127      12.108091      3.7264069      33.31332       58.554118      57.296018      59.064943      1              198158.03      1.2112527      9163.2582      20759.488     -7675.3741      402.44697     -2759.0068      24986.724     -19946.989      2280.7278      18           
     18200   296.67578      25158.283      18623.193      43781.476     -543.67789     -1307.1322      262.16704     -586.06849      0.0036333912   0.0036328874   0.014956731    0.018644182    0.0036263044   0.014845982    0.01847251     14.753369      9.6936821      6.9668685      17.989483      14.639878      6.6349102      58.496754      57.278353      58.994348      1              197666.33      1.2142657      9128.8948      20825.566     -7408.7599      400.88278     -2833.6648      24993.175     -19947.811      2211.6994      18.2         
     18400   298.30916      24715.213      18725.725      43440.937      828.05445      1540.0666      190.99428      753.10249      0.0036732454   0.0036721319   0.015022434    0.018191677    0.0036654061   0.014910715    0.018028188   -1.5252301     -14.26028      -4.2891179      35.000337      15.222811      8.569393       58.400235      57.288914      58.923279      1              197138.79      1.217515       9259.7178      20777.645     -7965.3319      405.28732     -2817.7542      25004.483     -19948.835      2237.8944      18.4         
     18600   298.09905      24899.812      18712.535      43612.348     -101.34851      158.17488      668.01777     -1130.2382      0.0037130979   0.0037077872   0.013766141    0.016788399    0.0037009303   0.013672248    0.016649032   -8.9254089      2.9549233      7.9271179      17.928484      7.6544815      2.3804788      58.311128      57.354717      58.877008      1              196909.34      1.2189338      9313.0557      20739.927     -7780.4025      410.47451     -2771.6069      24935.041     -19946.677      2216.7579      18.6         
     18800   301.02581      24838.693      18896.257      43734.949      580.69758      816.18245      75.28918       850.62112      0.0037529489   0.0037416633   0.011987355    0.013953953    0.0037346807   0.011916076    0.013857493   -11.437363     -6.8444591     -21.633649      16.433919      1.1484436      17.800063      58.287451      57.44657       58.833683      1              196999.53      1.2183757      9122.7219      20851.156     -7740.9279      390.61009     -2800.0179      24961.292     -19946.142      2215.1322      18.8         
     19000   298.34195      24673.161      18727.783      43400.944      958.86646      1628.3969      141.2088       1106.9936      0.0037927982   0.0037751134   0.0097500398   0.010558107    0.0037680056   0.0097028148   0.01050276     7.3941333      3.3841691     -7.1727851      26.278452      4.3850657     -9.2191865      58.281505      57.543268      58.878601      1              197461.65      1.2155243      9169.6111      20826.189     -7953.7609      402.96825     -2823.1586      24997.894     -19946.581      2228.1542      19           
     19200   299.05903      25001.251      18772.796      43774.047     -896.38421     -297.50824     -1813.9787     -577.66569      0.003832646    0.003815713    0.0073604344   0.0084760417   0.0038084516   0.0073334786   0.0084403217  -3.5746098      26.531832     -13.320049      20.971612     -0.034736971    2.7493875      58.244966      57.530269      58.962825      1              197575.5       1.2148239      9440.0987      20724.601     -7717.5322      387.99563     -2829.7298      24946.03      -19950.212      2166.0878      19.2         
     19400   302.02667      24702.683      18959.083      43661.767      482.09129      993.47288      475.21149     -22.410491      0.0038724922   0.0038606258   0.0058694841   0.006484813    0.0038531927   0.0058523257   0.0064638771   3.2598337      7.1514079      27.498652      10.942074     -7.2877876      1.5800123      58.199932      57.453283      58.987977      1              197242.65      1.2168739      9449.8333      20693.592     -8107.4349      400.24876     -2761.228       24975.247     -19947.574      2266.4444      19.4         
     19600   298.40204      24805.71       18731.555      43537.265      597.52479      758.87278      428.74708      604.9545       0.0039123368   0.0039054042   0.0046729758   0.005127253    0.0038977979   0.0046620913   0.0051141534  -31.532149      2.0496844      3.8791753      10.453229      5.0844359     -15.587978      58.237018      57.380042      58.922171      1              196896.83      1.2190112      9360.0708      20835.914     -8047.1256      395.80201     -2744.6895      24952.201     -19946.462      2261.0489      19.6         
     19800   297.4668       24733.325      18672.848      43406.173     -32.339709     -1312.0404     -12.300465      1227.3217      0.0039521798   0.0039485077   0.0033862077   0.0055251498   0.0039407328   0.0033804874   0.0055099421   3.019217      -15.406994     -24.686402      22.890126      1.2778151     -9.9439863      58.353335      57.33277       58.910413      1              197088.22      1.2178274      9393.5868      20667.071     -7925.802       390.5547      -2803.4606      24959.06      -19947.684      2207.9148      19.8         
     20000   295.77635      24740.16       18566.733      43306.893     -249.22016      143.19476     -969.60302      78.747782      0.0039920213   0.0039870431   0.0022365961   0.0066378027   0.0039791159   0.0022340986   0.0066158695   12.794945      5.501596       1.2055837      19.147701      3.2182116     -9.3936181      58.433335      57.352156      58.988228      1              197685.93      1.2141453      9436.9648      20686.427     -7966.499       405.81094     -2831.6977      24951.975     -19942.822      2177.4558      20           
     20200   298.05432      24670.826      18709.728      43380.553      124.32304     -259.34621      231.37467      400.94066      0.0040318611   0.0040311587   0.001192432    0.0074456639   0.0040230553   0.0011917216   0.0074180817   23.812887      5.1491542      10.972779      15.329238     -7.3721267      7.9083129      58.376065      57.291753      58.997452      1              197315.03      1.2164275      9343.656       20708.506     -7982.4145      409.38908     -2801.9903      24943.375     -19949.696      2191.6894      20.2         
     20400   298.33512      25185.099      18727.354      43912.453     -696.67646      280.08193     -445.7237      -1924.3876      0.0040716994   0.0040773702   0.00081735003  0.0075642629   0.0040690803   0.00081701619  0.0075357974  -17.161372     -3.6217106     -2.5549601      10.506924     -9.960469       12.499665      58.284727      57.203236      58.984478      1              196658.68      1.2204874      9484.9819      20852.555     -7809.5091      406.32533     -2768.7438      24966.878     -19947.389      2250.7458      20.4         
     20600   300.64302      24681.122      18872.228      43553.35      -29.298626     -410.08278      1078.68       -756.49306      0.004111536    0.0041191046   0.0014765591   0.0073243676   0.0041106443   0.00147547     0.0072976746  -22.305897     -19.251576     -2.3169072      30.682971     -6.9455298     -9.6228471      58.333342      57.178786      58.990645      1              196759.15      1.2198642      9434.2258      20654.473     -8085.4031      396.33196     -2741.202       24971.402     -19948.706      2281.4939      20.6         
     20800   296.63289      24974.216      18620.5        43594.716     -553.18973     -486.90202     -1086.1668     -86.500388      0.0041513711   0.0041565683   0.002733138    0.00783981     0.0041479536   0.0027294097   0.0078092384   7.727905       9.3008515     -0.8204354      22.634558     -4.3530035     -2.6043458      58.440038      57.213551      58.999942      1              197269.97      1.2167054      9363.7789      20799.553     -7747.5857      388.3458      -2816.6332      24932.847     -19946.091      2170.1234      20.8         
     21000   297.54787      24776.056      18677.936      43453.992      288.51297      426.8298       1039.6626     -600.95348      0.0041912046   0.0041981325   0.00459786     0.008202504    0.0041893449   0.0045873221   0.0081690463   2.6533317      0.695743       9.0043385      10.576099      5.3830535      7.8992149      58.544928      57.191776      58.980151      1              197482.56      1.2153957      9342.5096      20782.169     -8035.5832      388.51206     -2772.1888      25018.476     -19947.84       2298.4476      21           
     21200   296.19376      24999.999      18592.935      43592.934     -994.31346     -1540.6829     -1029.1191     -413.13831      0.0042310365   0.0042452287   0.0072330699   0.0086006824   0.0042362431   0.0072070367   0.0085639072   16.11418       15.097637      7.0647977      25.618741     -8.540054      -8.7260417      58.646451      57.09593       58.906292      1              197246.17      1.2168522      9331.0342      20781.035     -7768.7469      380.15637     -2775.3123      24994.359     -19942.526      2276.5206      21.2         
     21400   297.12616      24979.925      18651.464      43631.389     -889.11782     -919.61435     -1045.5795     -702.15958      0.0042708669   0.0042931299   0.0099667734   0.0089218437   0.0042839407   0.0099174327   0.0088822792   8.48195       -4.4395688      10.079792      15.904184      12.142369      10.081071      58.682171      56.991497      58.820053      1              196716.89      1.2201262      9301.4376      20820.878     -7683.7618      412.71764     -2885.723       24961.155     -19946.778      2128.654       21.4         
     21600   298.59766      24963.577      18743.835      43707.411      399.86032     -114.00638      1108.4057      205.18163      0.0043106956   0.0043320202   0.011847744    0.0089712155   0.004322664    0.011778109    0.0089312132  -16.723821     -44.512769     -19.709519      21.07567       7.8880284     -2.2359563      58.723933      57.007703      58.739794      1              196644.18      1.2205774      9396.5278      20779.666     -7759.5437      412.99143     -2883.4164      24967.331     -19949.98       2133.9352      21.6         
     21800   296.51549      24878.237      18613.131      43491.368     -324.98461     -882.10984      806.96534     -899.80933      0.0043505227   0.0043618164   0.013134754    0.0098948341   0.0043523313   0.013049242    0.0098462007   8.1000383     -6.7844029     -19.196216      30.485678      4.1024645     -16.624691      58.763671      57.142513      58.75467       1              197292.53      1.2165663      9373.2889      20730.593     -7830.3945      414.29878     -2844.2074      24980.461     -19945.802      2190.4509      21.8         
     22000   299.56749      24877.226      18804.714      43681.94       200.5473       258.4176      -74.522709      417.74701      0.0043903483   0.0043931465   0.01370552     0.011596726    0.0043835248   0.013612449    0.011529999    31.693916      24.475505      27.689904      13.337012      9.5251698      1.0989908      58.700116      57.255497      58.737533      1              197411.22      1.2158348      9367.7169      20632.278     -7783.8395      416.80609     -2791.2006      24981.427     -19945.962      2244.2645      22           
     22200   299.75738      24728.066      18816.633      43544.7        563.47096     -345.13403      643.49098      1392.0559      0.0044301723   0.0044307216   0.013988323    0.013327748    0.0044209349   0.01389139     0.013239715    3.6730523      0.56542797    -28.784244      7.5643183     -6.3704966      3.3870894      58.575168      57.286021      58.727204      1              197061.38      1.2179933      9370.9464      20717.54      -8039.8246      424.61088     -2783.893       24986.058     -19947.372      2254.7931      22.2         
     22400   298.05996      24892.675      18710.082      43602.757     -276.99374      220.72916     -587.17457     -464.5358       0.0044699947   0.0044667225   0.014459591    0.014849182    0.0044567763   0.014356048    0.014740012   -12.159029     -2.6385904     -4.9579189      19.567407      4.5309706      8.3526835      58.47302       57.336231      58.818046      1              197194.71      1.2171698      9392.3034      20770.111     -7781.4097      404.15168     -2908.4472      24961.86      -19945.894      2107.5183      22.4         
     22600   299.02379      24638.446      18770.584      43409.03       107.7032      -133.48909      427.51394      29.084735      0.0045098155   0.0045072879   0.015134477    0.014758017    0.0044971605   0.015021093    0.014650177    1.9172376      19.654861     -0.28358077     21.237239     -7.4997579      19.333567      58.414168      57.327525      58.893057      1              197217.52      1.217029       9328.2967      20881.357     -8036.7774      384.56361     -2921.3251      24949.051     -19946.719      2081.0064      22.6         
     22800   293.60416      24726.64       18430.378      43157.019     -184.47473     -646.42841      12.123076      80.881145      0.0045496347   0.0045513587   0.015340833    0.014126612    0.0045410326   0.015224352    0.014027761    1.6330779      4.0263315      27.662302      15.342449      14.084968     -8.9818684      58.285675      57.274825      58.907817      1              196652.07      1.2205284      9322.0753      20719.88      -7919.259       390.59968     -2841.4229      25000.464     -19945.696      2213.3447      22.8         
     23000   295.8986       24719.244      18574.407      43293.65       66.54543      -617.02626      376.03798      440.62458      0.0045894523   0.0045940575   0.014806113    0.013430486    0.0045835371   0.014697573    0.013341096   -8.6943535     -19.946957     -21.902369      21.473916     -4.0091791      6.8328401      58.1888        57.240225      58.912719      1              196222.95      1.2231976      9361.3424      20641.771     -7914.888       400.26683     -2772.964       24951.634     -19947.919      2230.7513      23           
     23200   300.33142      24825.623      18852.668      43678.291     -226.38718      240.67729     -548.52548     -371.31336      0.0046292684   0.0046268823   0.013845803    0.01219052     0.0046162112   0.013750826    0.012116814   -5.58714       -18.411828      1.6143753      21.805628      12.531255     -1.8482425      58.143702      57.328347      59.065724      1              196882.74      1.2190985      9224.3638      20817.435     -7751.1468      402.39054     -2895.2744      24972.388     -19944.533      2132.5806      23.2         
     23400   297.30606      24862.548      18662.757      43525.305     -559.79934      352.45407     -1313.8127     -718.03941      0.0046690828   0.0046635172   0.012427267    0.011667945    0.0046526767   0.012350682    0.011600399   -1.7584949      22.319741      23.448769      15.178896      6.2689552     -13.077765      58.095588      57.368318      59.111219      1              197008.6       1.2183196      9403.2823      20659.013     -7716.3897      410.55291     -2906.8514      24963.083     -19950.141      2106.09        23.4         
     23600   297.77953      24875.269      18692.478      43567.747      437.98671      961.00683      0.75535767     352.19793      0.0047088957   0.0047001949   0.0095428913   0.01125711     0.0046891835   0.0094976455   0.01119422    -12.884772     -0.9686466      14.497909      9.8098642      18.670205      6.7589221      58.092421      57.407142      59.007655      1              196785.8       1.219699       9282.9158      20827.495     -7824.1865      399.20135     -2835.1634      24976.807     -19951.8        2189.8439      23.6         
     23800   296.36147      24753.501      18603.463      43356.963      427.12622      1182.7645     -964.61434      1063.2285      0.004748707    0.0047371243   0.0055851798   0.010559459    0.0047259395   0.0055696405   0.010504098   -20.488161      7.3279468      12.131083     -2.0418559     -3.2943445     -7.2919304      58.203292      57.442312      58.865721      1              196807.63      1.2195637      9329.4944      20739.686     -7874.6667      414.64008     -2851.6565      24945.015     -19949.012      2144.3471      23.8         
     24000   298.56168      24945.138      18741.576      43686.714      546.24787      877.58222      820.7212      -59.559801      0.0047885167   0.0047772571   0.0031466969   0.010040993    0.0047658823   0.0031417564   0.0099909169   0.21256474     1.9878349     -6.148139       16.266076     -8.5385977      7.1846762      58.291896      57.438396      58.718859      1              196602.07      1.2208388      9425.5697      20846.557     -7869.7212      410.82424     -2876.5847      24958.535     -19950.042      2131.9085      24           
     24200   299.28978      24630.185      18787.281      43417.466      372.41865      1179.6746      697.52131     -759.93993      0.0048283249   0.0048205905   0.0019644483   0.0091470194   0.0048090086   0.0019625213   0.0091054388  -1.0580389      10.617045     -14.1137        26.099881     -6.468996       1.7651558      58.388346      57.396413      58.698921      1              196716.61      1.220128       9316.6174      20695.424     -7957.6605      399.77633     -2836.7153      24961.569     -19948.826      2176.0278      24.2         
     24400   299.00102      24743.5        18769.155      43512.655     -410.32603     -67.894079     -72.43898      -1090.645       0.0048681314   0.0048630629   0.0013408219   0.0084936841   0.0048512764   0.0013399238   0.0084578157  -12.280286     -14.058168      13.684139      21.048304     -3.7084872     -1.7541991      58.485777      57.36533       58.706959      1              196965.13      1.2185885      9331.6845      20622.212     -7771.2418      411.83427     -2885.884       24981.43      -19946.535      2149.0111      24.4         
     24600   296.21091      24825.051      18594.012      43419.062     -418.83863     -1362.9137     -245.94795      352.34574      0.0049079364   0.0049076445   0.00099367207  0.0088745404   0.0048956412   0.0009931787   0.0088353931   19.631459      24.019903     -4.7906331      25.434156     -7.6368826     -10.096924      58.579125      57.310146      58.674646      1              196981.24      1.2184888      9259.8952      20725.692     -7705.6149      404.65925     -2804.076       24892.678     -19948.183      2140.419       24.6         
     24800   298.69898      24719.382      18750.195      43469.577      1085.7874      766.70904      1461.0843      1029.5688      0.0049477397   0.0049585996   0.001276253    0.010109759    0.0049463462   0.0012754393   0.010058997   -9.647918      -4.6279623     -10.55828      -1.3522016     -8.159817      -9.4660183      58.593632      57.182359      58.631913      1              196447.52      1.2217993      9402.9892      20667.354     -8041.9519      405.91322     -2685.7971      24920.882     -19950.007      2285.0776      24.8         
     25000   296.39588      24710.114      18605.623      43315.737     -218.9603      -1064.0595      588.90536     -181.72672      0.0049875415   0.0050069584   0.0019481351   0.011621632    0.0049944653   0.0019462399   0.011554619    9.052614      -4.9254246     -2.6409719      28.19425      -1.6610028      8.8550892      58.636462      57.086758      58.685419      1              196441.55      1.2218364      9300.6222      20668.608     -7855.1349      394.32655     -2805.8578      24956.977     -19949.427      2201.6919      25           
     25200   296.55967      24978.986      18615.904      43594.89       1082.5337      443.23214      1776.3312      1028.0376      0.0050273417   0.0050470163   0.0029474091   0.012681823    0.0050343228   0.002943074    0.012602082    16.763859     -30.400913     -9.1147988      16.762743      2.2935912     -7.6151457      58.620703      57.086726      58.745235      1              196588.81      1.2209212      9341.7894      20817.982     -7778.2372      401.02445     -2820.8156      24966.061     -19948.818      2196.427       25.2         
     25400   298.14162      24897.773      18715.208      43612.98       507.74576     -484.12661      778.28986      1229.074       0.0050671403   0.0050743275   0.0041718379   0.013448796    0.0050614965   0.0041631599   0.013359164   -17.219551     -17.890401      3.8982552      10.062762      1.228306       11.149139      58.589514      57.230096      58.839         1              197292.08      1.216569       9358.088       20818.156     -7902.6174      402.32427     -2781.7248      24949.489     -19945.942      2221.8222      25.4         
     25600   298.86588      24808.844      18760.671      43569.516      559.67809      271.64584      339.16748      1068.221       0.0051069374   0.0051037372   0.0056605609   0.013761352    0.0050907573   0.0056446001   0.013667524    26.645043      29.457009      21.108983      10.984655     -9.4038527      11.101464      58.474721      57.348343      58.844266      1              197330.03      1.2163351      9394.2114      20748.729     -7872.31        403.21399     -2872.3513      24953.4       -19946.049      2135           25.6         
     25800   299.66312      24657.79       18810.717      43468.507      427.32391      529.33753     -108.07849      860.71271      0.0051467328   0.0051431797   0.0082060167   0.01260153     0.0051299988   0.0081725304   0.012522792   -11.909582      7.1188642      2.4966405      13.545733     -9.5619075      6.9047195      58.354038      57.353135      58.825822      1              196877.5       1.2191309      9299.8482      20698.407     -7914.6819      410.94488     -2838.5802      24948.767     -19946.914      2163.2722      25.8         
     26000   299.69186      24685.153      18812.521      43497.673      857.03717     -8.0342958      1303.3512      1275.7946      0.0051865267   0.0051812747   0.010173798    0.012158384    0.005167898    0.010122393    0.012085065   -2.9737882     -7.6054747     -0.68491095     25.60456       16.436636     -8.5177748      58.29107       57.372772      58.760316      1              196513.32      1.2213902      9290.3465      20793.437     -7985.5322      416.13993     -2824.0402      24944.834     -19950.033      2170.761       26           
     26200   295.95019      24806.519      18577.646      43384.165      330.21231      262.62306     -464.05516      1192.069       0.005226319    0.0052177692   0.011191408    0.011968032    0.0052042038   0.011129247    0.011896981   -19.073511     -2.2579961     -14.569194      12.671628      7.2554299     -0.25411061     58.285366      57.409726      58.754252      1              196600.35      1.2208495      9238.7907      20749.571     -7778.1827      409.5192      -2812.6172      24946.411     -19946.973      2186.8208      26.2         
     26400   297.97616      24802.017      18704.822      43506.839      632.40484     -534.43756      645.8812       1785.7709      0.0052661097   0.0052540738   0.011295786    0.011326435    0.0052403193   0.011232465    0.011262771    11.639967      14.181283      12.940687      27.273414      8.6230976      7.4031552      58.319783      57.448242      58.750185      1              196834.8       1.2193953      9489.2681      20851.252     -8191.199       405.75228     -2752.1099      24949.607     -19950.553      2246.9434      26.4         
     26600   297.68829      24723.454      18686.751      43410.205      431.66222      101.9521       207.37072      985.66384      0.0053058988   0.0052995089   0.010943472    0.010145733    0.0052855159   0.010884025    0.010094611    1.1180246      10.301705     -14.174327      25.948931     -0.57904219     1.1714048      58.300093      57.387187      58.73619       1              196512.4       1.2213959      9335.2188      20721.993     -7947.2375      397.95704     -2806.9498      24969.752     -19947.278      2215.5233      26.6         
     26800   297.78212      24802.306      18692.641      43494.947      766.87125      439.22519      1318.0941      543.29451      0.0053456863   0.0053505485   0.011137854    0.0083857951   0.0053362852   0.011076285    0.0083508296  -15.78968      -0.93923209     7.0367285      32.47668      -6.968922      -7.4699822      58.316236      57.267118      58.750745      1              196204.15      1.2233148      9274.7289      20761.158     -7875.3921      429.58567     -2828.9912      24988.881     -19947.665      2212.2249      26.8         
     27000   295.91329      24859.325      18575.329      43434.654      112.00702      388.22035     -186.71424      134.51495      0.0053854723   0.0053991394   0.011882322    0.0065128198   0.0053846163   0.011812281    0.0064917031  -1.3635592     -5.7202884      1.5157618      15.85169      -2.2412007      1.6181301      58.396636      57.175239      58.77522       1              196241.15      1.2230841      9354.2662      20796.517     -7792.2297      423.79083     -2935.5872      24961.813     -19949.246      2076.9798      27           
     27200   297.25827      24848.213      18659.758      43507.97       183.05176      242.70488      78.290245      228.16016      0.0054252566   0.0054446184   0.012036539    0.0043191261   0.00542985     0.011964676    0.0043098254  -2.6106716     -36.569956      0.07917785     23.673983      15.081873     -7.1615915      58.490006      57.117626      58.800051      1              196439.82      1.2218472      9271.2833      20851.992     -7759.0592      389.8958      -2885.7102      24924.86      -19945.049      2094.1006      27.2         
     27400   299.99762      24866.09       18831.714      43697.805      344.06421      121.52586     -173.39814      1084.0649      0.0054650394   0.0054792603   0.010759759    0.0024473815   0.0054643038   0.010702285    0.0024443915   21.375577     -13.818678     -3.4154988      25.085145      10.29895      -16.979924      58.558144      57.173828      58.783344      1              196806.24      1.2195723      9470.9565      20680.237     -7958.3133      403.22499     -2796.528       25014.492     -19947.979      2269.9847      27.4         
     27600   297.3902       24919.863      18668.039      43587.902     -372.41348     -574.71793     -419.6817      -122.84081      0.0055048206   0.0055070111   0.0085011151   0.0021060576   0.0054919029   0.0084651841   0.002103843    19.977526      6.7658679     -6.0250917      29.984319      9.4507227     -10.086874      58.547217      57.300937      58.814288      1              197310.79      1.2164537      9362.6655      20638.852     -7718.3172      402.05466     -2775.1966      24955.817     -19946.012      2234.6087      27.6         
[...]
    744000   300.46067      24889.485      18860.781      43750.267      130.4893       356.63209      529.56778     -494.73198      0.13871792     0.14610227     0.0035482121   0.0046693627   0.13636685     0.003541932    0.004658495   -4.2081684     -3.5124544     -9.7053703      72.876384      2.1055516     -12.431713      58.311889      57.807388      58.616866      1              197589.13      1.2147401      9417.0705      20749.593     -8053.179       397.20279     -2613.0522      24942.53      -19950.679      2378.7983      744          
    744200   297.15991      24910.115      18653.583      43563.698     -642.95707     -934.50874     -603.69864     -390.66382      0.13875274     0.14583333     0.0045018908   0.0036425432   0.13613217     0.0044917876   0.0036359252  -3.430109      -7.7044986     -16.168288      79.707579      0.59112478    -4.9467238      58.263796      57.931092      58.595523      1              197776.61      1.2135886      9407.6179      20708.859     -7882.2152      421.52857     -2792.9794      24997.199     -19949.895      2254.3241      744.2        
    744400   299.60385      24893.568      18806.996      43700.565     -127.2606      -225.22865      471.97622     -628.52938      0.13878755     0.14558353     0.0050868377   0.0030118062   0.13591414     0.0050739435   0.0030072798  -7.0315282      3.5282358     -19.517465      77.169402      8.5075219     -14.312949      58.228598      58.047513      58.653559      1              198250.51      1.2106876      9355.4428      20738.06      -7889.2084      410.43935     -2709.8858      24937.631     -19948.911      2278.8343      744.4        
    744600   297.25183      24888.14       18659.353      43547.493     -917.99154     -736.66715     -641.14483     -1376.1626      0.13882237     0.14555097     0.0056094929   0.0046331952   0.13588572     0.0055938183   0.004622495    0.15335105     19.137142     -0.53641695     76.925432     -7.4148643     -27.264666      58.200066      58.076282      58.730135      1              198510.41      1.2091025      9327.5918      20758.421     -7866.2306      414.9601      -2739.5732      24942.06      -19949.09       2253.3974      744.6        
    744800   297.76988      25128.366      18691.873      43820.239     -492.77618     -359.92858     -286.59388     -831.80608      0.13885719     0.14564424     0.0060292444   0.0068543926   0.13596713     0.0060111413   0.006831008    18.249749      0.37839043     18.832835      72.302851      2.1738946      0.7912764      58.107903      58.054151      58.78394       1              198302.03      1.2103731      9309.189       20782.932     -7750.5545      411.24944     -2681.5468      25004.707     -19947.61       2375.5502      744.8        
    745000   297.22623      24886.276      18657.746      43544.023     -144.85389      153.63119     -673.56292      85.370067      0.138892       0.14567858     0.005755761    0.0091783678   0.13599711     0.0057392599   0.0091365026  -9.0005069     -5.9387533     -24.896343      67.797318      12.828827      4.7323876      58.016202      58.055854      58.840818      1              198186.47      1.2110788      9311.7279      20677.293     -7883.4877      424.42773     -2659.8327      24962.122     -19945.974      2356.3149      745          
    745200   299.94459      24963.376      18828.385      43791.762      302.12437     -27.462214      240.4752       693.36012      0.13892681     0.14572539     0.0049191775   0.011022545    0.13603796     0.0049071179   0.01096224     4.6391956      4.6495299      10.038521      69.771814      1.0269817      2.7040391      57.911735      58.05252       58.955862      1              198205.02      1.2109655      9353.4967      20722.63      -7876.4358      428.17682     -2721.8345      25007.934     -19950.591      2335.5089      745.2        
    745400   299.31456      24890.109      18788.837      43678.946      372.94339      918.24337      112.96102      87.625783      0.13896162     0.14577096     0.0041237192   0.012461886    0.13607773     0.00411524     0.012384876    4.7619137     -8.1045018     -3.053335       92.281503     -3.6311622      11.633137      57.847043      58.049689      59.037036      1              198246.54      1.2107119      9308.1862      20608.614     -7799.5475      396.65819     -2693.9148      25019.961     -19949.848      2376.1976      745.4        
    745600   298.99278      24858.906      18768.637      43627.543      709.75474      851.34303      1328.2846     -50.363445      0.13899643     0.1459185      0.0032443403   0.012579204    0.1362065      0.0032390888   0.012500743   -24.160764      21.123477      1.4587982      72.574462      3.1698359      18.847139      57.765505      58.005713      59.121964      1              198101.7       1.2115971      9368.4354      20721.792     -7949.3259      406.31099     -2725.8946      24988.937     -19951.349      2311.6936      745.6        
    745800   296.59352      24882.741      18618.029      43500.77      -410.64822     -11.229009     -777.0326      -443.68304      0.13903124     0.14602434     0.0024602223   0.011484209    0.13629885     0.002457201    0.011418766    3.7472248     -10.313929      16.208631      81.754212     -1.512712       1.2841789      57.764469      57.978615      59.142237      1              198073.5       1.2117696      9331.2714      20729.852     -7885.2526      389.54063     -2717.9298      24983.484     -19948.225      2317.3297      745.8        
    746000   298.07017      24969.781      18710.723      43680.504      12.699979     -51.075764     -567.66875      656.84446      0.13906605     0.14628574     0.0012841673   0.010415301    0.13652692     0.0012833435   0.010361435   -12.534174      0.84289411    -1.8336949      72.316224     -4.4835189     -5.3823576      57.785986      57.889042      59.078478      1              197627.87      1.214502       9312.9766      20568.758     -7696.1074      409.47862     -2672.5625      24992.65      -19945.412      2374.6755      746          
    746200   296.00596      25051.445      18581.146      43632.591      914.28131      641.94535      393.10886      1707.7897      0.13910085     0.1465656     -0.00077219542  0.0094334126   0.13677104    -0.00077249372  0.0093891958  -1.9949212     -1.0809526     -0.24921686     68.210139      8.3737113     -4.3346855      57.879752      57.792403      59.057861      1              197549.13      1.214986       9519.7679      20907.597     -8126.5379      398.55998     -2678.6301      24975.227     -19944.538      2352.0585      746.2        
    746400   297.08367      25134.709      18648.797      43783.506     -222.3312      -1526.1014      804.08043      55.027405      0.13913566     0.14665783    -0.0030288851   0.0079026582   0.13685148    -0.0030334815   0.0078715957   9.9417262     -22.475049     -1.8742752      65.324805     -6.8015125      8.6871163      57.994478      57.771011      59.026969      1              197763.93      1.2136664      9245.3066      20943.741     -7770.7819      409.76073     -2738.3571      24996.289     -19951.249      2306.6833      746.4        
    746600   296.25801      24947.027      18596.968      43543.996     -294.16002     -421.31063      725.38915     -1186.5586      0.13917046     0.14662036    -0.0055672745   0.0054600978   0.13681879    -0.0055828296   0.0054452455   13.045793     -9.5846685     -10.434892      83.188239     -2.9435772      4.3131028      58.05053       57.801474      59.035664      1              198088.63      1.211677       9405.4492      20836.503     -8031.1236      397.04696     -2664.6329      24951.163     -19947.379      2339.1512      746.6        
    746800   296.22587      24906.266      18594.951      43501.217     -28.593757     -532.89049      285.75776      161.35146      0.13920527     0.14642518    -0.0082617012   0.0024955002   0.13664856    -0.0082960182   0.0024923916  -7.3817056     -3.4817723      19.578408      76.80135      -8.5933996     -4.3921617      58.104699      57.895138      59.053552      1              198654.94      1.2082228      9339.5782      20758.262     -7992.1479      410.64542     -2655.2344      24995.99      -19950.827      2389.9282      746.8        
    747000   296.9471       24860.851      18640.224      43501.076     -409.63683     -1037.603       375.94043     -567.24788      0.13924007     0.14628447    -0.0088007918   3.4098814e-05  0.13652582    -0.0088397475   3.4098232e-05  29.083275      16.698198      5.2604082      72.761839     -35.321196     -7.5428894      58.091135      57.96715       59.018983      1              198739.2       1.2077106      9431.9021      20681.627     -7894.4913      386.18799     -2726.597       24932.73      -19950.507      2255.6251      747          
    747200   298.99502      25191.956      18768.778      43960.734      469.23298     -122.80259      1650.1894     -119.6879       0.13927487     0.14636077    -0.0071301933  -0.0014021146   0.13659237    -0.0071557346  -0.0014030984  -9.0367065      3.7432263     -13.980152      70.356764     -10.322526     -7.6323109      58.015336      57.95201       58.949192      1              198193.39      1.2110365      9515.0085      20882.984     -7995.1861      414.78864     -2641.6278      24963.999     -19948.01       2374.361       747.2        
    747400   299.58826      24979.905      18806.017      43785.922     -599.63659     -2002.7425     -324.61274      528.44549      0.13930967     0.14642547    -0.0052189756  -0.0021640581   0.13664881    -0.005232642   -0.002166403   -8.1010654      2.0060993     -0.33307754     92.914435     -2.0676151     -14.022602      58.024833      57.941537      58.957406      1              198217.63      1.2108884      9305.9634      20750.235     -7822.433       399.45111     -2708.5436      25004.495     -19949.263      2346.688       747.4        
    747600   299.68612      24840.846      18812.16       43653.007     -573.52035     -294.19236     -135.59301     -1290.7757      0.13934446     0.14669361    -0.0022390527  -0.0014815974   0.13688268    -0.0022415632  -0.0014826961  -11.155291      13.106816      6.3109769      70.691643     -8.904694      -9.9892582      58.032647      57.849574      58.941489      1              197876.24      1.2129776      9267.7605      20821.143     -7889.2687      391.39247     -2780.2768      24981.217     -19951.122      2249.819       747.6        
    747800   296.61975      24868.063      18619.676      43487.739     -428.31954     -1239.3306     -248.4446       202.8166       0.13937926     0.14705115     0.0015728947  -0.00054110366  0.13719443     0.001571659   -0.00054125011 -3.6355672      13.425062     -16.101713      80.413969     -8.6752491      6.2973163      58.08911       57.722313      58.896674      1              197482.78      1.2153943      9351.0634      20728.17      -7935.6731      418.64195     -2722.709       24978.783     -19950.213      2305.861       747.8        
    748000   298.94077      24931.367      18765.372      43696.74      -123.89797      7.4670393     -679.07131      299.91036      0.13941406     0.14726894     0.004436318    0.00056061135  0.13738428     0.0044265066   0.00056045426  4.5022827     -13.025307     -13.563468      74.241882      5.6301702     -10.50942       58.140761      57.651123      58.988394      1              197722.03      1.2139236      9350.1912      20805.041     -7912.9727      409.55261     -2787.9228      25020.403     -19952.925      2279.5549      748          
    748200   298.23371      24921.276      18720.989      43642.265      39.577273      23.462991      718.93853     -623.6697       0.13944885     0.14736654     0.0061365124   0.001513316    0.13746935     0.0061177607   0.0015121721   22.053461     -3.6155617     -1.7010865      70.020644      0.075323848   -3.7671438      58.106814      57.627785      59.058641      1              197761.81      1.2136794      9348.2064      20816.444     -7984.5949      398.17261     -2722.4897      25014.458     -19948.92       2343.0476      748.2        
    748400   299.40192      24702.287      18794.32       43496.608      945.97948      1472.8562      261.09571      1103.9865      0.13948364     0.1473924      0.0068684054   0.0029728488   0.13749189     0.0068449254   0.0029684386  -8.0302484     -6.7232147     -7.8790754      85.003011      7.0797085     -4.296376       58.034599      57.63293       59.109262      1              197702.98      1.2140406      9417.6111      20683.367     -8189.1459      395.0564      -2663.6377      25006.933     -19947.897      2395.3983      748.4        
    748600   297.96007      24929.566      18703.811      43633.377      373.04973      1038.4729      736.18325     -655.50692      0.13951843     0.14732425     0.0064472574   0.0042141461   0.13743249     0.0064265627   0.0042052914   3.69682       -6.694541       13.914057      84.251572      14.94069      -9.2021089      58.016789      57.675389      59.160576      1              197959.62      1.2124667      9428.5022      20884.553     -8067.4301      401.1062      -2739.5793      24968.53      -19946.117      2282.8345      748.6        
    748800   296.93254      24753.322      18639.31       43392.632      27.490912      813.25073     -551.54242     -179.23557      0.13955322     0.1471914      0.0058088788   0.0057936046   0.1373167      0.0057920724   0.0057768862  -6.3537612     -8.6234047      5.7269263      70.418615     -12.697307     -5.0058846      57.992727      57.743626      59.122707      1              197984.82      1.2123123      9425.559       20625.927     -7970.768       409.99436     -2744.9497      24957.23      -19949.67       2262.61        748.8        
    749000   297.56722      24996.736      18679.151      43675.887     -557.99847      495.50095     -817.89066     -1351.6057      0.13958801     0.14699956     0.0061846704   0.00816525     0.13714946     0.0061656238   0.0081320947   9.2247936      1.0273794      12.853538      76.530664     -2.9805055     -7.7067863      57.972227      57.835526      59.088767      1              198116.02      1.2115095      9494.2642      20804.631     -7967.9799      390.53308     -2770.8875      24995.741     -19949.566      2275.2876      749          
    749200   297.97814      24897.21       18704.946      43602.156      93.782918      745.02043     -509.55126      45.879578      0.1396228      0.1468323      0.0063172909   0.010402039    0.13700362     0.0062974205   0.01034831    -16.283939     -4.5115519     -0.93427173     66.920083      7.0745104      10.313666      57.915519      57.917828      58.975384      1              197823.55      1.2133006      9221.438       20873.198     -8015.9753      397.32305     -2630.0381      24998.983     -19947.719      2421.2263      749.2        
    749400   298.24625      25009.062      18721.776      43730.838     -120.94015     -211.38475     -250.32489      98.889184      0.13965759     0.14674635     0.0056229103   0.012177906    0.13692867     0.0056071607   0.012104351   -28.346317      7.6740806     -13.218084      85.926143      0.58027581    -5.5973186      58.016197      57.967712      58.89014       1              198051.44      1.2119045      9357.7347      20878.665     -7911.9813      395.23981     -2694.3513      24932.708     -19948.954      2289.4036      749.4        
    749600   299.32981      24696.477      18789.794      43486.271      980.04363      1402.7837      602.14274      935.20441      0.13969237     0.14672187     0.0055489454   0.013572422    0.13690732     0.0055336067   0.013481142    12.566341      0.43300193     12.874249      68.250415     -0.64148728     10.402924      58.141393      57.992999      58.808759      1              198291         1.2104404      9326.2574      20754.685     -8172.9023      400.55186     -2627.7752      24963.95      -19948.291      2387.8843      749.6        
    749800   298.13867      25019.432      18715.023      43734.454     -1033.8897     -1059.096      -983.67435     -1058.8987      0.13972716     0.14678217     0.0055128158   0.014105825    0.1369599      0.0054976758   0.014007264    25.4332        5.5167306     -9.0497759      83.54906       0.62413517     6.5340299      58.170097      57.984297      58.737871      1              198120.03      1.211485       9326.3485      20747.317     -7766.3503      400.83203     -2693.5315      24952         -19947.185      2311.284       749.8        
    750000   294.95575      25023.231      18515.222      43538.453     -292.03225      53.194001     -748.02033     -181.27043      0.13976194     0.14690754     0.0054852466   0.013751806    0.13706923     0.0054702574   0.013658108   -0.74246596     15.308974      4.8152021      71.52138      -8.173258       14.013948      58.130959      57.949546      58.752129      1              197916.11      1.2127332      9463.9621      20682.399     -7913.6535      397.32076     -2642.4024      24983.566     -19947.961      2393.2027      750          
WARNING: Bond/angle/dihedral extent > half of periodic box length (../domain.cpp:1172)
Loop time of 16350 on 16 procs for 750000 steps with 21060 atoms

Performance: 3.963 ns/day, 6.056 hours/ns, 45.872 timesteps/s, 966.057 katom-step/s
99.0% CPU use with 16 MPI tasks x no OpenMP threads

MPI task timing breakdown:
Section |  min time  |  avg time  |  max time  |%varavg| %total
---------------------------------------------------------------
Pair    | 8559.9     | 8960.9     | 9290.9     | 252.4 | 54.81
Bond    | 2179.3     | 2333       | 2451.7     | 150.5 | 14.27
Kspace  | 1237.8     | 1689.2     | 2246       | 747.5 | 10.33
Neigh   | 2603       | 2603.5     | 2603.9     |   0.7 | 15.92
Comm    | 219.66     | 222.46     | 225.75     |  14.4 |  1.36
Output  | 97.946     | 97.948     | 97.956     |   0.0 |  0.60
Modify  | 371.33     | 399.7      | 413.4      |  68.6 |  2.44
Other   |            | 43.21      |            |       |  0.26

Nlocal:        1316.25 ave        1348 max        1285 min
Histogram: 2 2 1 1 3 0 2 2 1 2
Nghost:        13511.5 ave       13646 max       13414 min
Histogram: 2 2 1 3 1 4 1 1 0 1
Neighs:         804595 ave      828632 max      780093 min
Histogram: 3 1 1 1 2 2 0 3 0 3

Total # of neighbors = 12873513
Ave neighs/atom = 611.27792
Ave special neighs/atom = 5.8048433
Neighbor list builds = 37154
Dangerous builds = 0

#-------------------Wrap up-------------------
write_restart   ${myid}.restart
write_restart   shear_1_EPON_862_pxld_88.2_replicate_1_FF_PCFF-class2xe.restart
System init for write_restart ...
PPPM initialization ...
  using 12-bit tables for long-range coulomb (../kspace.cpp:342)
  G vector (1/distance) = 0.18125633
  grid = 15 18 15
  stencil order = 5
  estimated absolute RMS force accuracy = 0.021843934
  estimated relative force accuracy = 6.578236e-05
  using double precision KISS FFT
  3d grid and FFT values/proc = 1820 300
Generated 66 of 66 mixed pair_coeff terms from sixthpower/sixthpower mixing rule
write_data      ${myid}.data
write_data      shear_1_EPON_862_pxld_88.2_replicate_1_FF_PCFF-class2xe.data
System init for write_data ...
PPPM initialization ...
  using 12-bit tables for long-range coulomb (../kspace.cpp:342)
  G vector (1/distance) = 0.18125633
  grid = 15 18 15
  stencil order = 5
  estimated absolute RMS force accuracy = 0.021843934
  estimated relative force accuracy = 6.578236e-05
  using double precision KISS FFT
  3d grid and FFT values/proc = 1820 300
Generated 66 of 66 mixed pair_coeff terms from sixthpower/sixthpower mixing rule
Total wall time: 4:32:30
