thermo_style    custom step temp pe ke etotal press pxx pyy pzz v_etrue v_eengxy v_eengxz v_eengyz v_etruexy v_etruexz v_etrueyz                 f_sxx_ave f_syy_ave f_szz_ave f_sxy_ave f_sxz_ave f_syz_ave lx ly lz v_dir vol density ebond eangle edihed                 eimp evdwl ecoul elong epair v_Time

restart         ${nsteps} rst1.a.${myid} rst2.a.${myid}
restart         200 rst1.a.${myid} rst2.a.${myid}
restart         200 rst1.a.shear_1_AroCy_L10_pxld_97_replicate_1_FF_PCFF-class2xe rst2.a.${myid}
restart         200 rst1.a.shear_1_AroCy_L10_pxld_97_replicate_1_FF_PCFF-class2xe rst2.a.shear_1_AroCy_L10_pxld_97_replicate_1_FF_PCFF-class2xe
dump            6 all atom 10000 dump.${myid} #every picosecond
dump            6 all atom 10000 dump.shear_1_AroCy_L10_pxld_97_replicate_1_FF_PCFF-class2xe 
dump_modify     6 scale no sort id


#-------------------Run-------------------
run             ${steps}
run             750000

CITE-CITE-CITE-CITE-CITE-CITE-CITE-CITE-CITE-CITE-CITE-CITE-CITE

Your simulation uses code contributions which should be cited:

- Type Label Framework: https://doi.org/10.1021/acs.jpcb.3c08419

@Article{Gissinger24,
 author = {Jacob R. Gissinger, Ilia Nikiforov, Yaser Afshar, Brendon Waters, Moon-ki Choi, Daniel S. Karls, Alexander Stukowski, Wonpil Im, Hendrik Heinz, Axel Kohlmeyer, and Ellad B. Tadmor},
 title = {Type Label Framework for Bonded Force Fields in LAMMPS},
 journal = {J. Phys. Chem. B},
 year =    2024,
 volume =  128,
 number =  13,
 pages =   {3282–-3297}
}

CITE-CITE-CITE-CITE-CITE-CITE-CITE-CITE-CITE-CITE-CITE-CITE-CITE

PPPM initialization ...
  using 12-bit tables for long-range coulomb (../kspace.cpp:342)
  G vector (1/distance) = 0.184014
  grid = 18 16 15
  stencil order = 5
  estimated absolute RMS force accuracy = 0.024493172
  estimated relative force accuracy = 7.376046e-05
  using double precision KISS FFT
  3d grid and FFT values/proc = 1690 320
Generated 45 of 45 mixed pair_coeff terms from sixthpower/sixthpower mixing rule
Neighbor list info ...
  update: every = 1 steps, delay = 0 steps, check = yes
  max neighbors/atom: 5000, page size: 100000
  master list distance cutoff = 14
  ghost atom cutoff = 14
  binsize = 7, bins = 10 9 8
  1 neighbor lists, perpetual/occasional/extra = 1 0 0
  (1) pair lj/class2/coul/long, perpetual
      attributes: half, newton on
      pair build: half/bin/newton/tri
      stencil: half/bin/3d/tri
      bin: standard
WARNING: Inconsistent image flags (../domain.cpp:1051)
Per MPI rank memory allocation (min/avg/max) = 20.28 | 20.36 | 20.68 Mbytes
   Step          Temp          PotEng         KinEng         TotEng         Press           Pxx            Pyy            Pzz          v_etrue        v_eengxy       v_eengxz       v_eengyz      v_etruexy      v_etruexz      v_etrueyz      f_sxx_ave      f_syy_ave      f_szz_ave      f_sxy_ave      f_sxz_ave      f_syz_ave          Lx             Ly             Lz           v_dir          Volume        Density         E_bond        E_angle        E_dihed        E_impro         E_vdwl         E_coul         E_long         E_pair         v_Time    
         0   298           -26635.259      17821.59      -8813.6692      55.727419      360.9731      -398.2192       204.42835      0              0              0              0              0              0              0              0              0              0              0              0              0              64.809685      62.380525      54.432609      1              220063.54      1.250383       9228.7524      11916.385     -3294.5893      887.62155     -911.72018     -17367.967     -27093.741     -45373.428      0            
       200   298.14158     -26298.421      17830.057     -8468.3647     -394.26435     -1095.8975      403.09517     -489.99069      3.99992e-05    4.0036195e-05  7.6244493e-05  0.00025622118  4.0035394e-05  7.6241586e-05  0.00025618836 -4.75129       -4.2409211     -10.990101      2.5217859      1.7362426     -5.9918881      64.833367      62.32413       54.47392       1              220111.85      1.2501085      9257.2179      12008.207     -3070.7651      869.79323     -931.76143     -17337.237     -27093.875     -45362.874      0.2          
       400   299.94136     -26254.536      17937.691     -8316.8451      122.70283     -511.27349      193.96254      685.41944      7.99968e-05    8.0147496e-05  0.00014249884  0.00099798942  8.0144285e-05  0.00014248869  0.00099749176  11.426174      13.202067      19.801486      5.3127835     -1.0467651     -3.0406836      64.869388      62.265726      54.48731       1              220081.84      1.250279       9296.4314      11946.731     -3024.7339      887.61029     -905.94519     -17359.943     -27094.687     -45360.575      0.4          
       600   300.35582     -26546.182      17962.477     -8583.7056      343.73598     -71.932834      170.09969      933.04108      0.0001199928   0.00012029786  4.7282588e-05  0.0025180322   0.00012029062  4.7281471e-05  0.0025148673  -18.354135     -18.168357     -6.300995       8.1053903      0.4645639      3.3711825      64.847305      62.22607       54.444851      1              219695.48      1.2524778      9301.9603      11812.398     -3159.7725      851.57739     -889.10974     -17370.07      -27093.166     -45352.346      0.6          
       800   295.99699     -26440.499      17701.802     -8738.6974     -248.10471     -607.84329     -141.33308      4.8622491      0.0001599872   0.00016036902 -0.00032768392  0.0042541809   0.00016035616 -0.00032773762  0.0042451575  -9.4829584      3.9217836     -19.337313     -5.8042134     -4.0781654     -7.3632318      64.938629      62.236983      54.475534      1              220167.47      1.2497927      9290.4623      11980.761     -3301.4732      857.83634     -829.49277     -17344.798     -27093.794     -45268.085      0.8          
      1000   296.32022     -26730.537      17721.132     -9009.4048     -489.41845     -416.5759      -586.74422     -464.93525      0.00019998     0.00020027755 -0.00069783942  0.0073172826   0.0002002575  -0.00069808302  0.0072906412   21.472511     -18.748958      8.6465792      5.9032209      6.4893355      13.262543      65.078124      62.294075      54.596287      1              221332.34      1.2432151      9238.5793      11972.42      -3505.6481      836.30066     -859.02707     -17319.165     -27093.996     -45272.188      1            
      1200   300.25251     -26300.511      17956.299     -8344.2123     -323.22597     -424.626        236.86883     -781.92073      0.0002399712   0.00024014378 -0.0013614418   0.0089278951   0.00024011495 -0.0013623694   0.0088882771   20.998355      10.199594      28.029342      21.076748      5.7113043      10.768718      65.081968      62.343174      54.591908      1              221502.11      1.2422622      9171.7088      11957.461     -3102.1754      869.28806     -739.87096     -17362.076     -27094.847     -45196.794      1.2          
      1400   296.93924     -26396.481      17758.152     -8638.3288      100.22078     -95.711734      695.18837     -298.81429      0.00027996081  0.00028011618 -0.0025701896   0.0095187334   0.00028007696 -0.0025734982   0.0094737157   18.428618      10.359792      9.3118754      3.9594821     -2.9781264      11.607833      64.926368      62.354651      54.458363      1              220472.56      1.2480633      9317.6785      12055.3       -3312.9712      855.94374     -861.04148     -17358.548     -27092.843     -45312.432      1.4          
      1600   296.7769      -26591.687      17748.444     -8843.2435      1180.8044      1121.4574      1184.3752      1236.5808      0.00031994881  0.0003201239  -0.0030314622   0.0093875205   0.00032007268 -0.0030360664   0.0093437316  -13.842752     -6.8475739     -21.532759     -3.7939621     -17.349316      0.81596828     64.736799      62.356379      54.336088      1              219341.33      1.2545         9325.19        11923.41      -3480.1917      874.21306     -780.80845     -17359.748     -27093.753     -45234.309      1.6          
      1800   296.50893     -26440.548      17732.418     -8708.1301     -368.2204      -356.05518     -761.53698      12.930961      0.00035993522  0.0003593866  -0.0028452004   0.0093643895   0.00035932204 -0.0028492556   0.0093208154  -20.549813     -18.935653     -12.717084      1.407637       3.4769903      2.8491828      64.653799      62.486994      54.364983      1              219635.7       1.2528187      9224.6734      11788.65      -2950.7994      877.09364     -910.9439      -17376.079     -27093.142     -45380.165      1.8          
      2000   300.28225     -26399.318      17958.077     -8441.241      -41.390988      28.442609     -508.95098      356.33541      0.00039992002  0.00039932109 -0.0019028963   0.0088703178   0.00039924139 -0.0019047091   0.0088312076   2.0150188      25.345061      15.714466      9.4988431     -14.348333      2.4807105      64.648274      62.486578      54.372388      1              219645.38      1.2527634      9264.0106      11953.464     -3145.637       883.89191     -935.48186     -17326.514     -27093.052     -45355.048      2            
      2200   296.71884     -26430.02       17744.971     -8685.0486     -287.28118      21.639362     -1110.382       226.89912      0.00043990323  0.00043953169  0.00027937362  0.0083576925   0.00043943512  0.00027933461  0.0083229604   13.167468      12.62677      -14.627393      9.4350492      4.4612958     -1.4449615      64.616825      62.446987      54.350302      1              219310.32      1.2546774      9172.8408      12009.35      -3123.6521      874.87531     -942.21519     -17327.451     -27093.767     -45363.434      2.2          
      2400   296.06342     -26186.693      17705.774     -8480.9185     -841.25494     -760.93747     -1059.7841     -703.04324      0.00047988484  0.00048041171  0.0015274854   0.0076394863   0.00048029635  0.00152632     0.0076104532  -9.272139      -7.7797257     -13.477625      17.865834      13.592063     -0.77319864     64.535846      62.327061      54.370226      1              218694.97      1.2582077      9166.8847      11918.641     -2761.9416      888.00894     -945.07297     -17359.761     -27093.452     -45398.286      2.4          
      2600   297.65027     -26501.763      17800.675     -8701.0887      335.21885      732.29104      528.32814     -254.96264      0.00051986485  0.00052076947  0.0020293293   0.0067682436   0.00052063391  0.002027273    0.0067454418  -24.573477     -4.2974993     -5.436939       3.8143337      3.1839676     -4.5367254      64.580505      62.288349      54.52747       1              219342.91      1.254491       9406.5081      11978.364     -3377.8021      876.23795     -933.85273     -17357.631     -27093.587     -45385.071      2.6          
      2800   293.99649     -26404.605      17582.163     -8822.4416      36.598674     -748.11984      629.33457      228.5813       0.00055984326  0.00056056015  0.0017433983   0.0057757701   0.00056040309  0.0017418803   0.0057591543   15.004951     -5.9109209      9.9702798     -2.5912872      7.386492       3.3634585      64.658119      62.318184      54.66579       1              220269.05      1.2492164      9375.7836      11934.105     -3254.0947      891.46779     -941.23485     -17317.498     -27093.134     -45351.867      2.8          
      3000   300.81076     -26279.844      17989.684     -8290.16       -611.47815     -860.42535     -309.153       -664.8561       0.00059982007  0.00060155871  0.0010321717   0.0051459082   0.00060137784  0.0010316393   0.0051327133   7.6868527      16.337306      18.57304       9.3657228      3.3840781     -1.2448529      64.604919      62.218883      54.694419      1              219852.2       1.251585       9191.8163      11923.901     -2897.4694      888.92613     -968.2997      -17324.092     -27094.627     -45387.018      3            
      3200   297.33542     -26225.746      17781.845     -8443.9008      126.4323      -218.34898     -244.93641      842.58228      0.00063979529  0.00064316382  0.00014008431  0.0033478024   0.00064295708  0.0001400745   0.003342211    1.1074192     -11.515505     -2.9606852      21.924029     -2.3699956      14.778591      64.525085      62.073658      54.657763      1              218921.18      1.2569077      9236.6335      12012.578     -2989.2665      881.34475     -926.53324     -17346.551     -27093.951     -45367.035      3.2          
      3400   298.47106     -26688.39       17849.761     -8838.6291      419.05846      470.11415      493.91731      293.14392      0.0006797689   0.00068307777 -0.00069464828  0.00092063987  0.00068284458 -0.00069488966  0.00092021634 -22.410387     -27.210947     -0.34906057     3.9731659      3.5793577     -5.0864675      64.608693      62.099445      54.704589      1              219483.78      1.2536858      9225.1803      12055.31      -3402.3792      884.73741     -1028.2454     -17329.41      -27093.583     -45451.239      3.4          
      3600   298.90255     -26524.939      17875.566     -8649.3729     -430.28161     -487.2423      -638.07878     -165.52375      0.00071974092  0.00072249645 -0.0018318389  -0.00074689174  0.00072223557 -0.0018335188  -0.0007471708  -2.4508808      9.6056815      9.5493355      3.8998741      6.867538      -9.2062176      64.719465      62.164971      54.702363      1              220083.12      1.2502717      9224.4229      11821.639     -3118.028       883.64717     -917.69365     -17325.004     -27093.921     -45336.619      3.6          
      3800   301.95684     -26269.526      18058.224     -8211.3014     -717.12524     -367.97899     -1036.5337     -746.86301      0.00075971135  0.00076140655 -0.0025426962  -0.0017049409   0.00076111682 -0.0025459344  -0.001706396    15.585982     -12.690639      0.3611389     -0.57300664    -27.685569     -8.5798114      64.745622      62.265278      54.646936      1              220303.89      1.2490188      9269.9556      11902.478     -3009.2132      896.86095     -903.57911     -17333.394     -27092.633     -45329.607      3.8          
      4000   297.22593     -26441.835      17775.297     -8666.5381      922.20018      981.19699      621.56831      1163.8353      0.00079968017  0.00080029557 -0.0017024151  -0.0018389483   0.0007999755  -0.0017038659  -0.0018406412   13.428979      10.601101      3.9291414      2.9984488      3.1794642     -3.813502       64.687875      62.357474      54.550107      1              220042.72      1.2505013      9257.2008      12065.035     -3425.9153      903.21779     -798.6747      -17349.068     -27093.631     -45241.374      4            
      4200   297.39456     -26522.117      17785.382     -8736.7352      639.85045      189.41395     -117.06002      1847.1974      0.0008396474   0.00083794324 -0.00076437685 -0.0015684329   0.00083759236 -0.00076466913 -0.0015696642  -5.9388917     -21.071662     -13.573874      8.0947071      0.089426896   -0.76389332     64.607609      62.533626      54.465129      1              220047.18      1.2504759      9347.6142      11932.676     -3380.7192      867.36973     -839.98573     -17354.324     -27094.748     -45289.058      4.2          
      4400   296.72353     -26508.19       17745.252     -8762.9385     -396.09046     -892.89692     -459.09841      163.72394      0.00087961303  0.00087453847 -0.00012193922 -0.0014500698   0.00087415628 -0.00012194666 -0.0014511222   9.0425817      15.270889      14.10917      -0.49137081     0.27384517     5.8548749      64.559109      62.770078      54.387748      1              220399.84      1.248475       9079.7589      11879.477     -3039.0808      883.77023     -869.15231     -17349.505     -27093.458     -45312.115      4.4          
      4600   295.48437     -26494.71       17671.145     -8823.5648      581.60316      1224.7116     -206.9103       727.0082       0.00091957706  0.00091282057  0.00033785158 -0.0012304931   0.0009124042   0.00033779452 -0.0012312507  -11.694204      24.603296      4.2532995      7.9024215      0.56862956    -11.671095      64.518726      62.871137      54.286043      1              220204.04      1.2495852      9252.7748      11932.432     -3271.3436      874.2241      -825.62977     -17363.731     -27093.436     -45282.797      4.6          
      4800   300.56185     -26464.823      17974.798     -8490.0244     -447.09586     -1421.8769     -409.17506      489.7644       0.00095953949  0.00095347107  0.00015949884 -0.00047604948  0.0009530168   0.00015948612 -0.00047616283  6.1525286      10.255999     -4.0207264      12.989069      6.1138745     -4.1054381      64.524954      62.80766       54.231884      1              219783.46      1.2519764      9213.4629      11951.908     -3139.6788      889.96918     -923.38365     -17365.323     -27091.778     -45380.484      4.8          
      5000   296.27991     -26416.351      17718.721     -8697.6294     -876.33558     -871.16524     -332.75479     -1425.0867      0.00099950033  0.00099497677  0.00018936969  9.3925346e-05  0.00099448211  0.00018935176  9.3920935e-05 -6.3499612      2.9430195     -8.79117        12.023524     -5.7769079     -2.7100264      64.502016      62.695439      54.219299      1              219261.88      1.2549546      9168.2255      12002.89      -3094.556       892.7019      -948.3597      -17344.262     -27092.991     -45385.612      5            
      5200   297.65424     -26444.829      17800.912     -8643.9173     -200.05861     -769.76703     -1060.0568      1229.648       0.0010394596   0.0010363301   0.00033290466  0.00072956644  0.0010357935   0.00033284926  0.00072930044 -17.716881     -3.7720555     -9.2600242     -9.305426       5.4462083      0.81973952     64.583264      62.601406      54.228794      1              219247.18      1.2550387      9155.3157      11976.12      -3119.5558      893.61148     -911.35098     -17345.314     -27093.655     -45350.32       5.2          
      5400   296.12135     -26282.255      17709.239     -8573.0159      456.80474     -603.17088      967.01208      1006.573       0.0010794172   0.0010764199   3.6743162e-05  0.0024547421   0.001075841    3.6742487e-05  0.0024517342  -3.0550844     -14.867701     -2.6905725      16.441163      10.639921     -12.534294      64.730667      62.587975      54.285754      1              219931.21      1.2511353      9262.6138      12085.833     -3226.1158      883.22633     -841.47352     -17352.257     -27094.082     -45287.812      5.4          
      5600   296.50875     -26576.905      17732.407     -8844.4974      326.17812      552.46934      328.06815      97.996863      0.0011193733   0.0011158471  -0.0018551816   0.0042275231   0.001115225   -0.0018569046   0.0042186122   25.42607       0.21936579     20.246618     -6.3781738      10.09017       8.5588423      64.820126      62.612664      54.272486      1              220268.18      1.2492213      9154.3841      11899.303     -3242.4186      877.55613     -801.71181     -17371.881     -27092.137     -45265.73       5.6          
      5800   298.66069     -26454.126      17861.101     -8593.0248     -1013.4298     -2033.3509     -980.91532     -26.023315      0.0011593277   0.0011562227  -0.0039784555   0.0061787176   0.0011555548  -0.0039863906   0.0061597076   8.6806235      6.0995252     -9.16002       -0.19030276    -4.1977791     -7.9018262      64.819196      62.584288      54.292257      1              220245.4       1.2493505      9111.7677      11880.698     -3000.7845      900.71099     -898.20912     -17354.676     -27093.634     -45346.519      5.8          
      6000   298.80398     -26536.551      17869.671     -8666.8805      422.10465     -490.57913      1622.5612      134.33188      0.0011992806   0.0011965768  -0.0060635529   0.0079398849   0.0011958615  -0.0060820109   0.0079085298  -1.4889348      9.5655407     -26.516384      5.3369631      5.3412379      0.61957302     64.756586      62.558954      54.327148      1              220084.94      1.2502614      9312.3903      11808.779     -3304.2248      905.73671     -821.58192     -17343.829     -27093.821     -45259.232      6            
      6200   295.8662      -26470.819      17693.98      -8776.8394     -107.66077     -390.43508     -89.058051      156.51081      0.0012392318   0.0012363545  -0.0078287879   0.0094973036   0.0012355909  -0.0078595938   0.0094524878   14.18791       0.40190032     25.489167      7.6647592     -1.281868      -8.9659445      64.621543      62.564426      54.41858       1              220014.85      1.2506597      9147.6755      12026.204     -3114.9913      903.84331     -990.57332     -17350.036     -27092.941     -45433.551      6.2          
      6400   296.45951     -26382.915      17729.462     -8653.4529      980.07274     -142.49973      1021.9419      2060.776       0.0012791815   0.0012773972  -0.0085272939   0.010851095    0.001276582   -0.0085638593   0.010792645    6.05887       -2.0389505     -6.445967       17.536457     -9.2416034      11.949245      64.483632      62.507599      54.449838      1              219471.89      1.2537538      9270.8595      11992.399     -3214.1914      903.772       -882.9076      -17359.216     -27093.632     -45335.755      6.4          
      6600   296.92733     -26291.945      17757.44      -8534.5056      491.14845      880.61227      382.95325      209.87984      0.0013191296   0.001317041   -0.0082716673   0.01090293     0.0013161745  -0.0083060674   0.010843922   -21.908765     -18.838216     -18.525647      23.783138     -4.0265128      12.031395      64.434531      62.520637      54.515144      1              219613.6       1.2529447      9268.0417      11994.344     -3041.7392      914.827       -982.18415     -17351.533     -27093.702     -45427.419      6.6          
      6800   297.36485     -26458.242      17783.605     -8674.6368     -708.08778     -1801.4273     -263.93517     -58.90083       0.001359076    0.0013561568  -0.0074072872   0.010313531    0.0013552381  -0.0074348574   0.010260709   -2.9211193      8.0251859      12.928082     -1.6847973     -10.469343     -4.0759989      64.475743      62.557265      54.581379      1              220149.96      1.2498921      9102.5504      11871.245     -2915.6035      890.96766     -978.93068     -17335.79      -27092.681     -45407.402      6.8          
      7000   300.40371     -26327.987      17965.341     -8362.6459      214.61242     -261.67524      27.937038      877.57547      0.0013990209   0.001396447   -0.0065355431   0.0091405445   0.0013954729  -0.0065569933   0.0090990225   0.37120518     15.334066      11.960787      10.916476      8.2511279      11.525488      64.510222      62.539199      54.570854      1              220161.61      1.249826       9254.0569      11945.924     -3062.6734      907.73414     -925.58597     -17353.393     -27094.05      -45373.029      7            
      7200   297.67868     -26517.004      17802.373     -8714.6308      229.44973     -282.23514     -280.5021       1251.0864      0.0014389642   0.001438709   -0.0060774824   0.0066917556   0.001437675   -0.0060960254   0.0066694652   0.56851703    -2.2883264     -8.5119982     -7.0199098      0.31340149     7.6258109      64.530518      62.436459      54.476969      1              219490.82      1.2536456      9295.7414      11857.732     -3210.3537      890.51087     -913.19982     -17343.466     -27093.969     -45350.635      7.2          
      7400   300.46451     -26627.98       17968.977     -8659.0028      116.53358      728.78035     -322.97837     -56.20122       0.0014789059   0.0014791467  -0.0061500355   0.0049024642   0.0014780539  -0.0061690248   0.0048904863   5.4647392     -10.983581      0.034839005    20.065641      1.3100441     -18.874657      64.490409      62.416465      54.457915      1              219207.45      1.2552662      9165.283       11802.974     -3113.8463      881.73051     -903.15216     -17366.971     -27093.998     -45364.121      7.4          
      7600   298.1784      -26621.755      17832.259     -8789.4965     -237.6297       76.347972     -55.961055     -733.27603      0.001518846    0.0015182141  -0.0044828847   0.0026350062   0.0015170627  -0.0044929629   0.0026315407  -11.968495     -7.8151377     -1.7748514      12.130895     -16.615305      11.895613      64.485084      62.453858      54.436065      1              219232.67      1.2551218      9164.4922      12006.4       -3206.0051      874.14662     -1007.5685     -17360.413     -27092.807     -45460.789      7.6          
      7800   297.02964     -26540.493      17763.558     -8776.9344      50.586146     -25.726674     -423.29669      600.7818       0.0015587845   0.0015564141  -0.0023782071  -0.00010314709  0.0015552041  -0.0023810395  -0.00010315241  1.376136      -15.843989     -13.602324      8.222324       0.20251521     2.1359738      64.475086      62.524198      54.41837       1              219374.22      1.2543119      9099.7146      11932.776     -3083.9398      879.3356      -901.88092     -17372.607     -27093.891     -45368.379      7.8          
      8000   298.80475     -26365.501      17869.717     -8495.7847      158.83857      834.33255      88.757467     -446.5743       0.0015987214   0.0015951297  -0.00018105262 -0.0024771981   0.0015938588  -0.00018106901 -0.0024802715   5.7400796      34.90532       10.500996     -1.0034063      7.055015      -5.0297976      64.543843      62.570934      54.507267      1              220131.34      1.2499979      9425.439       11981.688     -3277.5065      897.02619     -928.75641     -17369.68      -27093.711     -45392.148      8            
      8200   296.46314     -26480.189      17729.679     -8750.5092      1172.2039      641.71422      1626.0895      1248.8081      0.0016386567   0.0016369798   0.0014309573  -0.004283405    0.0016356414   0.0014299345  -0.0042926051  -1.034923       3.9539692     -2.3676787     -4.9319638     -0.49440513    -11.551618      64.55817       62.495562      54.503094      1              219898.14      1.2513235      9316.2858      11992.845     -3366.2302      921.80061     -844.81957     -17405.488     -27094.582     -45344.89       8.2          
      8400   299.003       -26448.219      17881.573     -8566.6457     -460.3562      -1196.5207      297.70384     -482.25171      0.0016785904   0.001681361    0.0032571622  -0.004915813    0.0016799491   0.0032518692  -0.0049279354  -4.3646211      12.828801     -3.0622976      15.480633      7.5872029     -1.6223959      64.572891      62.329973      54.513737      1              219408.34      1.2541169      9222.8729      11870.211     -2968.2476      875.13642     -967.77927     -17385.351     -27095.062     -45448.192      8.4          
      8600   295.45759     -26488.25       17669.543     -8818.7066     -714.46447     -616.56253     -757.11245     -769.71844      0.0017185225   0.0017236052   0.0032070281  -0.0043464039   0.0017221215   0.0032018966  -0.004355877    3.4187028     -8.8064214      0.91399244     26.705579      9.6807796     -27.261476      64.595166      62.249984      54.556616      1              219374.77      1.2543088      9070.3456      11930.486     -2956.284       892.67207     -982.80762     -17349.053     -27093.609     -45425.47       8.6          
      8800   297.71654     -26414.183      17804.638     -8609.5453     -595.24949     -937.14976     -230.74364     -617.85507      0.001758453    0.0017637994   0.0025492446  -0.002237943    0.0017622457   0.0025460008  -0.0022404509   14.266707     -18.753361     -0.68020074     4.1768416     -5.7869226     -3.510325       64.609268      62.246088      54.590206      1              219544.02      1.2533418      9100.5599      12013.995     -3029.4633      893.99531     -971.79082     -17327.778     -27093.701     -45393.27       8.8          
      9000   298.30761     -26418.69       17839.986     -8578.7039     -219.7169      -355.58079      444.97366     -748.54356      0.0017983819   0.001803847    0.0021041425   0.00030031117  0.001802222    0.0021019319   0.00030026608 -24.425629     -2.1947119      2.9267982      5.7066928      15.218974     -3.9843453      64.559541      62.247423      54.616746      1              219486.41      1.2536708      9277.4567      11865.134     -3040.7533      913.75265     -966.73232     -17373.683     -27093.864     -45434.28       9            
      9200   297.19652     -26608.806      17773.538     -8835.2678      973.51546      1199.7365      1203.4132      517.3967       0.0018383093   0.0018426383   0.0012676613   0.002205758    0.0018409428   0.0012668585   0.0022033289   10.365972      2.6567993      1.7625326      11.432277     -5.8262564      5.5550119      64.569992      62.291137      54.661661      1              219856.76      1.251559       9209.9135      11989.307     -3348.5716      869.86181     -913.22637     -17323.211     -27092.879     -45329.317      9.2          
      9400   298.09774     -26485.313      17827.435     -8657.8783     -205.77678     -1006.1483      163.57899      225.23901      0.001878235    0.0018808411   0.000965471    0.004574759    0.0018790746   0.00096500523  0.0045643266  -6.2659947      1.8630381      5.5336454      13.825043     -8.2598259     -7.0490846      64.668444      62.352555      54.689591      1              220521.71      1.2477851      9149.3503      11968.389     -3073.5312      886.85184     -961.22269     -17362.054     -27093.096     -45416.373      9.4          
      9600   298.77781     -26214.29       17868.106     -8346.1842     -754.14582      719.347       -1546.2977     -1435.4868      0.0019181592   0.001919496    0.0010789863   0.0075888834   0.0019176562   0.0010784046   0.0075602327   11.812425      5.6070117      19.452053      7.7552584     -1.3326621      6.5081639      64.7005        62.396826      54.632256      1              220556.2       1.24759        9191.313       11940.814     -2980.9813      898.77053     -823.30034     -17347.61      -27093.296     -45264.206      9.6          
      9800   299.83955     -26525.043      17931.602     -8593.4406     -441.2998      -152.42412     -902.22219     -269.2531       0.0019580817   0.0019587908   0.0014077269   0.0098672684   0.0019568749   0.001406737    0.0098189048  -7.1938193     -2.915574       6.5994856      5.4883616     -0.17262272     24.061163      64.720477      62.418954      54.490143      1              220128.43      1.2500144      9131.4078      11958.179     -3153.4131      884.73145     -905.59287     -17346.866     -27093.49      -45345.948      9.8          
     10000   297.6224      -26356.895      17799.008     -8557.8867     -137.40213     -116.89433     -477.4158       182.10373      0.0019980027   0.0019989799   0.0017561999   0.010623857    0.0019969846   0.0017546596   0.010567821   -25.021582     -10.13467      -7.854138       9.9759772     -9.6613642     -1.0584165      64.802305      62.412276      54.336506      1              219761.79      1.2520998      9156.2016      11974.707     -2997.3889      892.29591     -946.02165     -17342.736     -27093.953     -45382.71       10           
     10200   294.83506     -26413.833      17632.313     -8781.5193     -792.88223     -1240.6316      146.45517     -1284.4702      0.002037922    0.0020370274   0.0030236538   0.010238233    0.0020349554   0.0030190918   0.010186177    35.89149       1.2251799     -20.868674      5.8626684     -2.279332       5.2753038      64.870754      62.471471      54.277954      1              219965.29      1.2509415      9273.8261      12083.327     -3260.5843      871.16852     -973.83184     -17315.305     -27092.434     -45381.57       10.2         
     10400   298.95084     -26468.661      17878.454     -8590.2074      386.91364     -13.381982      1380.3147     -206.19185      0.0020778398   0.002075096    0.0040779412   0.009771863    0.002072946    0.0040696489   0.0097244271   8.4408591     -3.8336032     -2.2977953      14.384589      12.568903      16.060326      64.800127      62.527858      54.25525       1              219832.13      1.2516992      9306.6252      12037.141     -3303.8458      880.51367     -920.80491     -17374.256     -27094.034     -45389.095      10.4         
     10600   298.109       -26317.495      17828.108     -8489.3865      991.73059      1744.5033      17.342892      1213.3456      0.002117756    0.0021126574   0.0043323936   0.0084512394   0.0021104289   0.0043230358   0.0084157276  -10.49721      -1.5396683     -24.243038     -4.7860938      6.1472596     -8.5208338      64.72304       62.597237      54.304858      1              220015.24      1.2506575      9317.6138      12102.706     -3286.298       888.23232     -889.75179     -17356.363     -27093.634     -45339.749      10.6         
     10800   298.89168     -26624.691      17874.916     -8749.775      -190.75768      4.0075053      595.26732     -1171.5479      0.0021576706   0.0021531487   0.0035583474   0.0077559073   0.002150834    0.0035520314   0.0077259849  -9.6204445      27.072524      14.989404      10.974692      4.5556535     -6.6992455      64.718743      62.578924      54.393006      1              220293.27      1.249079       9171.2373      11904.33      -3237.3669      886.13426     -910.46228     -17344.793     -27093.77      -45349.025      10.8         
     11000   299.43836     -26411.826      17907.609     -8504.2165     -68.31879      -330.92574      539.39402     -413.42466      0.0021975835   0.0021966889   0.0020214466   0.0070939951   0.0021942797   0.0020194063   0.0070689511   13.915313     -9.0505         13.45967       8.5448704     -5.7346407      3.1372806      64.637839      62.474451      54.406187      1              219703.8       1.2524303      9204.0313      12019.266     -3187.6474      887.5511      -926.9311      -17314.414     -27093.682     -45335.027      11           
     11200   301.22281     -26629.184      18014.326     -8614.8577      416.55158      939.22267      653.3988      -342.96673      0.0022374949   0.0022391855   0.00081686386  0.0058987973   0.0022366823   0.00081653041  0.0058814675  -18.641789     -10.458031     -7.8573591      19.296123     -1.2071958     -4.3336286      64.539262      62.403111      54.409317      1              219130.84      1.255705       9070.5971      11931.2       -3135.3036      895.01543     -909.96314     -17387.368     -27093.362     -45390.693      11.2         
     11400   298.34062     -26642.939      17841.96      -8800.9788      152.85971     -40.999123     -125.30365      624.88191      0.0022774047   0.0022789312  -0.00055449562  0.0044247713   0.0022763384  -0.00055464941  0.0044150108  -13.93101      -7.9868569     -7.7631609      19.958312     -8.6774799     -6.3208678      64.584478      62.409674      54.454946      1              219491.35      1.2536426      9299.9448      11912.757     -3333.4861      871.41702     -959.27834     -17341.151     -27093.143     -45393.572      11.4         
     11600   298.6931      -26229.991      17863.04      -8366.9511     -446.39159     -939.07708     -1198.1177      798.02003      0.002317313    0.0023176764  -0.0032948071   0.003495807    0.0023149947  -0.0033002469   0.0034897109   21.443086      12.811728      19.587971      21.624193      10.425111     -8.922132       64.64341       62.442954      54.527052      1              220099.83      1.2501768      9373.3303      11983.591     -3104.3774      909.66423     -964.52396     -17334.461     -27093.214     -45392.199      11.6         
     11800   296.35833     -26233.838      17723.411     -8510.4264     -466.94559     -573.61939     -318.95633     -508.26107      0.0023572196   0.0023586142  -0.0071279959   0.003001889    0.002355837   -0.0071535214   0.0029973923  -2.7771957     -8.1804592      24.121007      0.34535014    -5.372863      -4.5296443      64.631446      62.417062      54.510198      1              219899.86      1.2513137      9229.5454      11974.787     -2983.5759      899.07288     -936.98706     -17322.572     -27094.108     -45353.667      11.8         
     12000   296.72133     -26510.84       17745.12      -8765.7199      460.06934      1413.1355     -645.22601      612.29855      0.0023971246   0.0023995888  -0.010303002    0.0030513817   0.0023967144  -0.010356445    0.0030467357   4.387433       12.709077      0.42603427     4.2077129     -7.4760061     -7.5905433      64.633369      62.391096      54.374649      1              219268.31      1.2549178      9286.9742      11944.483     -3281.2274      893.82435     -938.04332     -17322.83      -27094.021     -45354.895      12           
     12200   299.07344     -26442.694      17885.786     -8556.9078     -354.5999      -460.00565      81.486585     -685.28063      0.002437028    0.0024375332  -0.012839029    0.0030107428   0.0024345672  -0.012922162    0.0030062196  -14.390624     -28.406665     -12.775142      2.5702348     -6.4728419      7.7756302      64.657631      62.443532      54.274909      1              219132.28      1.2556968      9092.206       11926.802     -2873.3203      867.56088     -1031.4579     -17331.535     -27092.949     -45455.942      12.2         
     12400   300.35174     -26203.712      17962.233     -8241.4787     -367.74984      277.50006      183.04006     -1563.7896      0.0024769299   0.0024745648  -0.013736336    0.0033700784   0.0024715082  -0.013831553    0.0033644124   11.828449      4.4771076      2.3292874     -2.1983957     -27.421752     -4.6342446      64.691541      62.517411      54.228351      1              219318.31      1.2546317      9217.4082      11981.009     -2909.0524      892.84351     -973.35593     -17319.42      -27093.144     -45385.92       12.4         
     12600   298.70914     -26668.345      17863.999     -8804.3453      539.40633      872.41211      886.3633      -140.55642      0.0025168301   0.0025137297  -0.012857741    0.0033825936   0.0025105756  -0.012941117    0.0033768855   0.97747854    -0.52959289     6.2204968      8.2279302     -10.120837      2.031894       64.593932      62.535997      54.120832      1              218618.17      1.2586497      9226.1537      12041.581     -3402.3373      890.51507     -1001.1192     -17330.525     -27092.613     -45424.257      12.6         
     12800   301.01754     -26441.283      18002.05      -8439.2325     -871.7389      -1170.9839     -1598.9253      154.69251      0.0025567288   0.0025504778  -0.010971665    0.0031841627   0.0025472309  -0.011032298    0.003179104    2.381729      -15.839005     -29.277294     -4.0648998      6.2566079      7.3411604      64.547158      62.613286      54.095777      1              218628.6       1.2585897      9155.0837      11885.841     -2908.2189      871.64006     -1001.3239     -17349.795     -27094.51      -45445.629      12.8         
     13000   297.65808     -26552.801      17801.142     -8751.6592      125.09418      140.96886      688.53814     -454.22448      0.0025966258   0.0025886764  -0.0087429583   0.0022675484   0.0025853316  -0.0087814022   0.0022649814   0.97400926     29.524914     -9.3656134      31.454159     -11.8024        2.90343        64.520291      62.653255      54.165873      1              218960.47      1.2566821      9267.8453      12042.409     -3319.5136      877.55371     -990.35907     -17336.186     -27094.55      -45421.096      13           
     13200   298.36237     -26709.865      17843.261     -8866.6038      216.53192      44.696205      381.02137      223.8782       0.0026365213   0.0026303009  -0.0054882017   0.00046133302  0.0026268477  -0.0055033172   0.00046122664 -19.96264      -2.7481604      1.7824797      8.683222      -10.992587      4.2245551      64.543599      62.610407      54.267371      1              219299.93      1.2547369      9186.9746      11871.101     -3286.7689      908.41703     -937.03843     -17357.882     -27094.668     -45389.588      13.2         
     13400   301.13108     -26406.278      18008.841     -8397.437      -611.56338     -1160.5652      460.57337     -1134.6983      0.0026764152   0.0026706174  -0.0026346396  -0.0011438027   0.0026670576  -0.0026381164  -0.0011444574   5.9182196      0.89033287     1.8472971      24.017442      7.126087      -1.1743445      64.575366      62.599537      54.394437      1              219883.42      1.2514072      9333.696       12048.132     -3250.396       867.30042     -945.43516     -17364.859     -27094.716     -45405.01       13.4         
     13600   298.8661      -26493.967      17873.386     -8620.5811      241.64182     -246.29418      351.90778      619.31185      0.0027163075   0.0027095161  -0.00066850848 -0.00082340081  0.002705852   -0.00066873203 -0.00082373999  2.8197278     -10.776956      15.333645      26.382117      7.2398402     -17.401127      64.544804      62.621741      54.402277      1              219889         1.2513755      9284.468       12096.013     -3385.1725      872.51948     -901.03331     -17366.746     -27094.016     -45361.795      13.6         
     13800   297.34863     -26362.168      17782.635     -8579.5328     -535.02312     -1137.7615      126.43128     -593.73917      0.0027561982   0.0027489282   0.00022807411 -0.00031868356  0.0027451568   0.0002280481  -0.00031873435  7.8125651      7.5212434      9.0736794      8.3404047      10.677111     -6.2482512      64.480408      62.631617      54.339559      1              219450.97      1.2538733      9186.841       12007.399     -3024.7569      866.70696     -948.87307     -17354.233     -27095.252     -45398.358      13.8         
     14000   296.88188     -26543.484      17754.721     -8788.7626      3.027347       270.43748      332.72613     -594.08157      0.0027960873   0.0027902156   0.00035845468  0.0011206598   0.0027863302   0.00035839045  0.0011200323  -4.3347258      11.396968     -19.098809      8.0755998     -1.0830803     -3.3010935      64.438025      62.599112      54.37475       1              219334.86      1.254537       9291.7294      11833.601     -3089.3484      873.30461     -977.68968     -17380.483     -27094.598     -45452.771      14           
     14200   297.83845     -26699.945      17811.928     -8888.0165      159.77194      155.82575     -476.70183      800.19191      0.0028359748   0.0028316904   0.0006825925   0.0028544888   0.0028276887   0.00068235964  0.0028504224  -4.8014022     -11.995518      3.066254       7.6563861     -3.3563326     -6.2154519      64.480102      62.563414      54.409247      1              219492.08      1.2536384      9119.5727      11931.043     -3126.2529      872.74631     -1055.8407     -17347.938     -27093.275     -45497.054      14.2         
     14400   297.76526     -26291.208      17807.551     -8483.6568     -268.62086     -374.37451     -17.025605     -414.46248      0.0028758607   0.0028712305   0.0014814231   0.0055853373   0.0028671163   0.0014803269   0.0055697971  -4.3185451     -3.6404506      2.580597       6.4397732     -2.5320392     -10.082401      64.53183       62.570881      54.452411      1              219868.68      1.2514912      9206.787       12053.644     -3009.4418      882.93646     -991.90467     -17339.125     -27094.104     -45425.134      14.4         
     14600   297.09029     -26480.385      17767.185     -8713.1999      547.01096      801.95328      643.91941      195.16018      0.0029157451   0.0029104119   0.0016681489   0.0084722265   0.0029061848   0.0016667591   0.0084365386   3.9022706      7.3520308      1.3410193      8.4189033     -0.025784159    6.8634791      64.594991      62.585856      54.504647      1              220347.72      1.2487703      9309.9645      11954.423     -3278.4377      878.60134     -886.52905     -17364.017     -27094.389     -45344.936      14.6         
     14800   298.3812      -26467.622      17844.387     -8623.2349     -283.47485     -540.91182     -318.20916      8.6964299      0.0029556278   0.0029545943   0.0013183293   0.011006473    0.002950238    0.001317461    0.010946343   -0.15507161     16.28114       1.3189002      7.6300958      15.691181      5.2733742      64.591438      62.494475      54.494823      1              219974.24      1.2508906      9207.8813      11872.045     -3084.9275      872.9547      -889.53046     -17352.927     -27093.119     -45335.576      14.8         
     15000   300.8693      -26438.276      17993.185     -8445.0906     -743.81166     -797.40558     -220.27026     -1213.7591      0.002995509    0.0029997015   0.00056800151  0.013582482    0.0029952113   0.00056784026  0.013491067    10.702081     -7.9684165     -1.897564       7.687249      -1.7092732     -4.0540255      64.547263      62.386547      54.49912       1              219461.46      1.2538133      9189.2794      11923.411     -3008.8858      872.5549      -953.23454     -17368.292     -27093.109     -45414.635      15           
     15200   296.93097     -26738.669      17757.658     -8981.0116      972.59275      1667.2808      482.91739      767.58008      0.0030353885   0.003039745   -0.00114092     0.015635088    0.0030351343  -0.0011415713   0.015514119    5.2784378     -17.809518      5.013453       14.085855      8.9901909      7.9754364      64.443413      62.385567      54.505907      1              219132.21      1.2556972      9223.4937      11911.295     -3400.3834      893.86353     -918.10859     -17355.047     -27093.782     -45366.938      15.2         
     15400   298.04676     -26495.618      17824.386     -8671.2324     -52.760666      324.87444      42.00009      -525.15652      0.0030752665   0.0030802876  -0.0029527293   0.01629987     0.0030755532  -0.0029570972   0.016168453   -22.732524      0.74445738     5.8609428      17.634294     -2.7014167      10.274358      64.44594       62.374504      54.484026      1              219013.99      1.256375       9329.0854      11949.499     -3248.0107      886.58099     -950.94647     -17367.775     -27094.052     -45412.773      15.4         
     15600   298.6803      -26340.009      17862.274     -8477.7349      115.41361      956.08356     -6.4555665     -603.38718      0.0031151429   0.003116907   -0.005066255    0.015607533    0.0031120595  -0.005079132    0.015486988   -6.1003933     -3.5527796     -4.7662755      4.4051639      1.6434249      28.754189      64.514682      62.442225      54.431845      1              219275.44      1.254877       9296.7468      11889.086     -3071.1132      917.25033     -923.69766     -17354.381     -27093.901     -45371.979      15.6         
     15800   297.06514     -26442.755      17765.681     -8677.0739      384.58874      704.83086     -23.549745      472.48512      0.0031550177   0.0031552966  -0.0067721686   0.013490725    0.0031503291  -0.0067952038   0.013400536    9.3544921      5.2894966     -5.9791172      12.931993     -6.0275978     -5.8822427      64.60628       62.473304      54.413163      1              219620.66      1.2529045      9080.9281      12015.896     -2975.523       887.40446     -988.40561     -17369.257     -27093.799     -45451.461      15.8         
     16000   299.58591     -26301.045      17916.434     -8384.6117      57.727241     -157.23797      158.62895      171.79074      0.0031948909   0.0031962915  -0.0083511417   0.011568454    0.0031911942  -0.0083862079   0.011502051    2.203528       7.77093       -7.1182591      15.162858     -0.54695524     0.044480871    64.657299      62.45269       54.442256      1              219839.04      1.2516599      9191.0649      12008.155     -3091.1999      899.23692     -850.44069     -17363.508     -27094.354     -45308.303      16           
     16200   295.98144     -26441.044      17700.872     -8740.172      -197.77171      552.72171      179.84093     -1325.8778      0.0032347625   0.0032389092  -0.0087390829   0.0085626116   0.0032336753  -0.0087774926   0.0085261603  -10.303778      3.1784808      7.2182976      0.80982133    -17.76059       8.1408489      64.749209      62.401315      54.494503      1              220181.54      1.2497129      9180.7801      11927.546     -3076.6734      897.81703     -919.36984     -17356.296     -27094.847     -45370.513      16.2         
     16400   298.90953     -26554.772      17875.983     -8678.7888     -393.26784     -1403.4729     -341.99535      565.66473      0.0032746325   0.0032836732  -0.0081252075   0.0050321737   0.0032782938  -0.0081583969   0.0050195547   6.5385376     -6.6459649      20.87783       11.652839     -11.289718     -11.204114      64.900446      62.31052       54.450363      1              220196.21      1.2496296      9303.5306      11895.468     -3332.9096      886.6421      -878.68792     -17335.273     -27093.542     -45307.503      16.4         
     16600   299.23003     -26244.998      17895.15      -8349.8477     -339.24896     -192.55577     -101.77834     -723.41276      0.003314501    0.0033239671  -0.0063303195   0.0031111471   0.003318455   -0.0063504409   0.0031063174   11.574702     -10.443806     -12.122529      15.08376      -11.912849     -6.7356665      64.898395      62.305845      54.379431      1              219885.91      1.251393       9216.697       11999.24      -3065.6241      913.84539     -875.24174     -17340.297     -27093.618     -45309.156      16.6         
     16800   295.89946     -26413.259      17695.969     -8717.2902     -663.76052     -758.58157     -1152.6417     -80.058337      0.0033543678   0.0033596391  -0.0043799452   0.0022546844   0.0033540082  -0.0043895652   0.0022521465   8.8421231     -13.92444      -6.1246322     -2.504958       6.106782      -4.2074842      64.851062      62.386991      54.36145       1              219938.96      1.2510912      9241.1827      11960.257     -3130.4901      890.99828     -948.8839      -17333.908     -27092.415     -45375.207      16.8         
     17000   300.49388     -26467.736      17970.734     -8497.0023      181.52967      82.304936      448.29075      13.993323      0.0033942331   0.0033953856  -0.0028354461   0.001674862    0.0033896343  -0.0028394735   0.001673461    9.0456436      10.428036      13.425474      18.285731     -1.6374155     -10.201731      64.757247      62.465062      54.343954      1              219824.85      1.2517407      9169.7675      11899.998     -3030.5783      875.0413      -934.7054      -17353.936     -27093.323     -45381.964      17           
     17200   300.53756     -26296.491      17973.346     -8323.145       234.35315      750.05625     -216.30287      169.30607      0.0034340967   0.0034304108  -0.0017410303   0.002226552    0.0034245403  -0.0017425477   0.0022240769   3.5584709     -10.720405     -1.5445026      1.6727554      7.3004561      5.260545       64.677736      62.554656      54.310764      1              219735.57      1.2522493      9144.2511      12085.427     -3102.0229      922.68111     -913.88606     -17338.913     -27094.029     -45346.827      17.2         
     17400   298.46531     -26549.586      17849.417     -8700.1688     -66.675672      448.00792     -684.62144      36.586501      0.0034739588   0.0034658586  -0.00080837134  0.003006283    0.0034598664  -0.00080869825  0.0030017732   6.548697       27.846827     -3.3728221      1.9989349     -2.0221106     -7.0172687      64.576491      62.634799      54.308491      1              219663.48      1.2526602      9253.7998      11911.58      -3130.7431      894.98488     -1043.2084     -17341.905     -27094.095     -45479.208      17.4         
     17600   298.79442     -26575.282      17869.099     -8706.1833      235.00371     -495.94587      479.42124      721.53576      0.0035138193   0.0035089952  -0.00085074339  0.0040838464   0.003502853   -0.00085110548  0.0040755302  -6.1263242      2.223944      -14.370065      12.960311      11.990506     -2.0250419      64.462273      62.575905      54.343438      1              219209.75      1.255253       9093.8426      11924.164     -3098.1704      921.50519     -985.61717     -17336.153     -27094.853     -45416.624      17.6         
     17800   298.76954     -26575.971      17867.611     -8708.3599      131.10034      464.20435     -165.93294      95.029616      0.0035536782   0.003552175   -0.0011568595   0.0046381873   0.0035458809  -0.0011575291   0.004627464   -24.076076     -7.2917102     -9.4304027      13.677618     -0.26463733     0.87347681     64.367846      62.517679      54.38599       1              218856.2       1.2572808      9151.6033      11861.584     -3083.2809      896.08494     -962.2903      -17345.359     -27094.313     -45401.962      17.8         
     18000   300.28181     -26368.623      17958.051     -8410.5718     -454.44423     -615.70552     -1072.9818      325.35462      0.0035935355   0.0035944439  -0.0017864352   0.0051675629   0.0035879993  -0.0017880328   0.0051542569  -2.6406786      4.7459108      19.558655      21.057206     -1.3005799      9.5876578      64.460528      62.476681      54.452667      1              219296.13      1.2547586      9285.1537      11856.375     -3005.4933      903.41522     -998.19205     -17316.375     -27093.506     -45408.074      18           
     18200   297.12739     -26481.901      17769.404     -8712.4969      513.29606      1171.4262     -137.22709      505.6891       0.0036333912   0.0036373077  -0.0019233281   0.0049627194   0.0036307086  -0.0019251801   0.0049504457   9.5417039     -5.4811618      9.0618014      14.379595     -3.1677711     -12.415094      64.539115      62.426424      54.458537      1              219410.52      1.2541044      9277.0075      11859.683     -3132.6035      898.04992     -901.75075     -17386.803     -27095.484     -45384.038      18.2         
     18400   297.92711     -26546.739      17817.231     -8729.5086      198.39491      689.20816      31.497738     -125.52117      0.0036732454   0.0036792425  -0.0032093189   0.0058680819   0.0036724907  -0.0032144798   0.0058509317   1.2340604     -5.9164295     -7.8901935      4.7314098      4.8601499      2.6024236      64.646583      62.393087      54.465503      1              219686.6       1.2525284      9221.0915      11937.118     -3154.1404      868.72778     -967.71328     -17358.194     -27093.629     -45419.536      18.4         
     18600   297.07347     -26375.087      17766.179     -8608.9078     -490.06767     -456.47212     -395.10369     -618.62721      0.0037130979   0.0037154323  -0.0054019222   0.0067842186   0.0037085472  -0.0054165653   0.0067613093   14.326696     -10.266194     -6.2881025      0.17327075     11.621157      16.524153      64.701306      62.456927      54.534275      1              220375.45      1.2486132      9240.0672      12047.422     -3224.1143      898.55851     -901.10453     -17341.484     -27094.432     -45337.021      18.6         
     18800   298.3944      -26460.03       17845.176     -8614.8534     -875.8937      -1010.1134     -627.67798     -989.88969      0.0037529489   0.0037539389  -0.0088941899   0.0073726636   0.0037469105  -0.0089339793   0.0073456184   27.787843      12.623211      20.854204      11.407006     -5.2397189     -4.5184659      64.620494      62.480951      54.549987      1              220248.3       1.2493341      9156.8344      11966.38      -3159.3494      907.71165     -911.82329     -17325.613     -27094.169     -45331.606      18.8         
     19000   300.12105     -26495.129      17948.437     -8546.692      -447.64448      88.112417     -1920.7336      489.68774      0.0037927982   0.003795772   -0.011975189    0.0068700676   0.0037885862  -0.012047469    0.0068465762  -1.4557405      22.159475     -4.4104668      11.641825     -16.050919      17.969549      64.461107      62.449709      54.532441      1              219524.56      1.2534529      9063.1615      11942.021     -3018.2609      882.80587     -914.16639     -17356.187     -27094.503     -45364.857      19           
     19200   299.7259      -26524.81       17924.805     -8600.0045      356.00218      765.5573       205.63273      96.816508      0.003832646    0.0038423126  -0.01358178     0.0052087897   0.0038349498  -0.013674856    0.0051952709  -26.172045     -23.670552     -4.1430497      6.7138751     -11.28894       3.7886567      64.363468      62.342672      54.557456      1              218916.74      1.2569332      9165.2191      11981.222     -3202.626       886.07843     -884.06524     -17374.991     -27095.647     -45354.704      19.2         
     19400   295.79365     -26449.636      17689.641     -8759.9948     -83.995438      306.1761       348.88436     -907.04677      0.0038724922   0.0038841488  -0.014601335    0.0039677435   0.003876625   -0.014708984    0.0039598928  -4.6744007      3.0910086     -0.40746083     13.6571       -8.6807788     -2.7881483      64.372575      62.313581      54.590514      1              218978.15      1.2565807      9102.608       12009.726     -2976.1582      916.55622     -1037.1825     -17370.691     -27094.494     -45502.368      19.4         
     19600   301.04982     -26414.803      18003.981     -8410.8225      67.194831     -389.64449     -284.40171      875.63069      0.0039123368   0.0039220001  -0.014929201    0.0024438844   0.0039143291  -0.015041763    0.002440903    1.4655613     -5.862269      -3.4074309      11.299338     -4.1585347      1.5248367      64.395174      62.348394      54.593256      1              219188.41      1.2553752      9278.3529      11980.274     -3175.7904      900.81261     -961.14296     -17342.82      -27094.49      -45398.453      19.6         
     19800   299.18098     -26343.351      17892.217     -8451.1338     -446.95925      332.6014      -1084.4012     -589.07796      0.0039521798   0.0039520424  -0.014046508    0.00012204353  0.0039442536  -0.014146094    0.00012203608 -16.290771     -5.6315306      15.893441      12.636653     -11.801701      8.3025289      64.478541      62.505805      54.592288      1              220022.38      1.2506169      9242.0568      12029.448     -3159.9117      893.14346     -905.9402      -17348.317     -27093.831     -45348.088      19.8         
     20000   296.70632     -26364.525      17744.223     -8620.3027      222.05446     -771.81345     -125.73161      1563.7084      0.0039920213   0.0039913138  -0.013288877   -0.0017167361   0.0039833696  -0.013377965   -0.0017182113  -4.0668156      14.531345      3.0918987      14.704445      1.5263952     -15.448844      64.588516      62.515951      54.490325      1              220021.72      1.2506207      9191.7478      12150.404     -3233.4807      879.49625     -871.25519     -17386.821     -27094.617     -45352.692      20           
     20200   298.71056     -26505.196      17864.084     -8641.1124      1042.5741      1092.606       1214.3592      820.75728      0.0040318611   0.0040302579  -0.013040064   -0.0020638645   0.0040221582  -0.013125832   -0.0020659972   20.876479     -12.896864      3.8024025      7.9690713      7.8979765     -8.1536389      64.618979      62.530975      54.40001       1              219813.45      1.2518056      9223.8916      11948.658     -3223.4708      893.46596     -882.32171     -17372.1       -27093.319     -45347.741      20.2         
     20400   301.12125     -26468.567      18008.253     -8460.3141      6.6539043     -70.587764     -554.86402      645.4135       0.0040716994   0.0040715289  -0.011763483   -0.0026398113   0.0040632627  -0.01183322    -0.0026433017  -8.5113069      3.0670922     -5.9293471      6.8470821     -7.3322196      2.7690289      64.652975      62.509966      54.280437      1              219371.96      1.2543249      9151.1367      12040.225     -3230.5506      900.25455     -892.75643     -17343.462     -27093.415     -45329.633      20.4         
     20600   297.5418      -26560.346      17794.187     -8766.1586     -128.05672     -516.44327      528.87797     -396.60487      0.004111536    0.0041134031  -0.010192394   -0.0027603893   0.0041049661  -0.010244692   -0.0027642062   8.0111497      7.5216442     -4.8789129      10.259956     -2.5703059     -10.369261      64.672925      62.480217      54.168965      1              218884.78      1.2571166      9204.7722      11984.906     -3288.5271      891.18561     -904.92531     -17353.606     -27094.151     -45352.683      20.6         
     20800   298.03649     -26408.086      17823.772     -8584.3143      730.47097      885.66126      764.18633      541.56531      0.0041513711   0.0041548553  -0.0081679327  -0.0020564237   0.0041462477  -0.008201473   -0.0020585411  -18.722625      1.8407984     -24.109062      0.87912871    -4.4801513     -14.620492      64.694986      62.457408      54.149326      1              218800.16      1.2576028      9259.8432      12022.18      -3237.5799      877.45559     -878.86279     -17357.664     -27093.459     -45329.985      20.8         
     21000   302.86019     -26400.755      18112.248     -8288.5066      472.61046      146.61364      603.65201      667.56574      0.0041912046   0.0041906226  -0.0054832508  -0.00040318392  0.0041818664  -0.005498339   -0.00040326523  15.918412     -15.899603     -23.133791      15.268743      1.7388106      8.0578629      64.815898      62.519748      54.31032       1              220080.28      1.2502879      9174.7932      12059.656     -3216.6108      905.1371      -902.97063     -17328.035     -27092.725     -45323.731      21           
     21200   299.8456      -26562.933      17931.964     -8630.9684     -21.15233      -505.07914      1422.6475     -981.02537      0.0042310365   0.004229235   -0.0028323359   0.00085837234  0.004220317   -0.0028363546   0.00085800415  23.808636      15.812711      50.338649      14.746849     -1.3274289      4.9749394      64.820855      62.538934      54.418471      1              220603.08      1.2473249      9179.6225      12076.716     -3293.7228      875.6274      -961.15915     -17346.249     -27093.767     -45401.175      21.2         
     21400   296.94397     -26482.939      17758.435     -8724.5042     -462.19623     -721.26386     -621.61242     -43.712407      0.0042708669   0.0042722015  -0.00099336184  0.0019017458   0.0042631016  -0.00099385555  0.0018999397   10.949497      1.5969906     -5.4026372      4.540611      -1.365964       0.35671495     64.693771      62.494014      54.351496      1              219741.66      1.2522146      9217.7435      12033.9       -3182.2062      886.44096     -1020.0718     -17324.833     -27093.912     -45438.817      21.4         
     21600   299.90816     -26392.241      17935.705     -8456.536      -186.84841      319.22241     -1045.3627      165.59502      0.0043106956   0.0043123725   0.00057564883  0.0024381018   0.0043031009   0.00057548321  0.0024351344  -7.334222       0.9794822     -8.5340018      3.4686063     -1.3290899     -6.0549739      64.604221      62.490474      54.31601       1              219281.79      1.2548406      9106.9394      11958.062     -2946.8658      873.77247     -938.33132     -17352.498     -27093.32      -45384.149      21.6         
     21800   297.38744     -26234.841      17784.956     -8449.8846      395.18862     -9.3888676      841.78127      353.17345      0.0043505227   0.0043520476   0.0018420387   0.0032608127   0.0043426048   0.0018403442   0.0032555077  -9.3732973     -4.7951723     -5.9027196      16.646177      2.5359734     -3.1851075      64.640317      62.494118      54.376354      1              219660.87      1.2526751      9217.6916      12137.347     -3242.0804      907.56259     -835.26032     -17326.119     -27093.982     -45255.361      21.8         
     22000   298.63785     -26510.369      17859.735     -8650.6337     -266.14083     -709.92173     -692.08743      603.58668      0.0043903483   0.0043946667   0.0012950422   0.0043241175   0.0043850383   0.0012942043   0.0043147953  -7.6789439      3.786564      -10.890414      19.26716       16.46455      -10.132888      64.689358      62.455827      54.43944       1              219947.72      1.2510414      9096.3062      12007.801     -3072.4565      883.89505     -991.9631      -17340.512     -27093.44      -45425.915      22           
     22200   298.50405     -26515.273      17851.734     -8663.5389      367.29324     -661.76849      617.33711      1146.3111      0.0044301723   0.004439271    0.00018509784  0.0055747168   0.0044294465   0.00018508071  0.0055592356   25.718976      16.213889      21.585337      11.874803      3.7768492      2.3263304      64.661462      62.390359      54.453314      1              219678.38      1.2525752      9250.6113      11945.348     -3246.6509      890.50316     -892.77131     -17368.734     -27093.579     -45355.085      22.2         
     22400   299.18919     -26258.313      17892.708     -8365.6048      1.419542      -256.69026      380.17939     -119.2305       0.0044699947   0.0044807182  -0.00092350896  0.0064215878   0.0044707097  -0.00092393566  0.0064010573  -20.139542     -32.409715     -8.8506377      2.7393138     -1.0349815      6.4733049      64.580544      62.370109      54.427157      1              219226.91      1.2551548      9249.7445      12098.114     -3238.7876      900.35026     -825.22978     -17349.923     -27092.581     -45267.734      22.4         
     22600   296.98353     -26364.767      17760.801     -8603.9662     -735.93204     -1057.9727     -136.14359     -1013.6798      0.0045098155   0.0045196184  -0.0013981587   0.0065398029   0.0045094356  -0.0013991371   0.0065185111  -19.816509      14.848981     -14.311607      8.8314702     -10.009827      6.5925894      64.628851      62.385367      54.444034      1              219512.61      1.2535212      9135.8644      11930.055     -3035.4969      912.5895      -883.46755     -17330.339     -27093.973     -45307.779      22.6         
     22800   297.19062     -26354.264      17773.186     -8581.0784     -353.78037     -1412.6469      268.37289      82.932889      0.0045496347   0.0045638809  -0.0019034396   0.0062654446   0.004553498   -0.0019052534   0.0062458983   18.020516      20.276932      27.840596      5.7787823      1.5234173     -0.17855637     64.807912      62.327047      54.470773      1              220023.02      1.2506132      9206.1659      11934.426     -3002.9666      896.94715     -957.14875     -17338.237     -27093.451     -45388.836      22.8         
     23000   301.36885     -26341.802      18023.061     -8318.7414      871.5933       756.86341      1225.6559      632.26062      0.0045894523   0.0046138383  -0.0027559076   0.005485365    0.0046032271  -0.0027597121   0.0054703751   1.0532538     -22.24424       1.790255       16.981094      3.2734464      1.8807173      64.908565      62.192987      54.398028      1              219597.09      1.2530389      9258.6878      12038.407     -3197.7343      919.04948     -891.24701     -17375.852     -27093.113     -45360.211      23           
     23200   299.52441     -26465.441      17912.756     -8552.6855      184.31048      219.91159      790.30495     -457.2851       0.0046292684   0.0046591748  -0.0041860452   0.0045072281   0.0046483544  -0.0041948312   0.004497101    6.5203022     -14.584183     -16.657615      5.992377      -1.6843206      1.4686932      64.99861       62.123349      54.32261       1              219350.97      1.2544449      9105.7738      11899.009     -2983.4239      894.24404     -937.59277     -17349.521     -27093.931     -45381.044      23.2         
     23400   297.0967      -26423.673      17767.569     -8656.1041     -688.11175     -323.69461     -1214.9056     -525.73503      0.0046690828   0.0046953641  -0.0059789079   0.0026701408   0.0046843753  -0.0059968531   0.0026665823   10.636524     -9.5894781     -10.188491      0.94317494    -6.9336063     -0.28166113     64.964783      62.175948      54.277611      1              219240.67      1.255076       9074.8116      12034.276     -2999.8457      892.5703      -984.31071     -17346.765     -27094.41      -45425.485      23.4         
     23600   299.47375     -26458.181      17909.726     -8548.4555     -368.337       -384.56508      614.00015     -1334.4461      0.0047088957   0.004727935   -0.0082403269  -0.00092105298  0.0047167934  -0.0082744661  -0.00092147741  0.30757315    -9.3356432      4.0894088      8.9414978     -11.665419      0.87495792     64.886218      62.275367      54.251082      1              219218.48      1.2552031      9136.1422      12029.674     -3152.8838      901.1569      -960.07053     -17317.613     -27094.587     -45372.271      23.6         
     23800   299.11591     -26208.233      17888.326     -8319.9077     -410.35817     -291.84823     -741.81968     -197.4066       0.004748707    0.0047617846  -0.0096250343  -0.0048408839   0.0047504832  -0.0096716544  -0.004852639    1.3311222      19.591693     -20.646108      13.821176     -14.511933     -12.213317      64.822505      62.356675      54.298074      1              219479.11      1.2537125      9216.8755      11936.409     -2871.3985      901.63636     -948.18752     -17349.966     -27093.602     -45391.756      23.8         
     24000   296.19731     -26468.625      17713.782     -8754.8432      1257.095       2408.9636      895.59811      466.72326      0.0047885167   0.0047998622  -0.010841962   -0.0065521115   0.0047883796  -0.010901165   -0.0065736708   0.70627057     8.2866346     -3.1811003      14.367239      13.838457     -20.423157      64.785667      62.381837      54.390999      1              219818.44      1.2517772      9295.1414      12095.675     -3440.7443      911.09627     -869.75534     -17367.234     -27092.804     -45329.793      24           
     24200   295.3518      -26474.786      17663.217     -8811.5688      864.35219      1280.7413      1423.115      -110.79971      0.0048283249   0.00483852    -0.0128175     -0.007016429    0.004826852   -0.012900353   -0.0070411599  -23.873534     -8.7987766      10.967122      16.749243     -4.2783506     -11.340767      64.81052       62.399119      54.438575      1              220156.09      1.2498573      9126.3325      12079.156     -3283.5393      892.05212     -818.62146     -17377.276     -27092.889     -45288.787      24.2         
     24400   297.7612      -26270.573      17807.308     -8463.2642     -973.96401     -1371.671      -718.14507     -832.07596      0.0048681314   0.0048770606  -0.013674463   -0.0057646977   0.0048652063  -0.013768819   -0.0057813777   4.8811251      7.9972419     -0.55204482     17.811897     -16.821307     -10.413857      64.960439      62.417627      54.492754      1              220950.48      1.2453637      9021.8148      12049.981     -2788.9842      875.92027     -978.24137     -17357.167     -27093.896     -45429.304      24.4         
     24600   297.75245     -26176.455      17806.785     -8369.6699      108.6833      -46.749049      37.295336      335.50363      0.0049079364   0.0049236037  -0.013093413   -0.0043917841   0.0049115224  -0.013179887   -0.0044014563   41.381077      30.086926      9.4066339      6.4444836     -9.1128994     -0.38420609     64.918129      62.334363      54.401078      1              220141.05      1.2499427      9314.6959      12035.487     -3032.193       922.42572     -968.75334     -17354.559     -27093.558     -45416.871      24.6         
     24800   296.49389     -26503.467      17731.518     -8771.9491      331.84051     -562.31637      586.97626      970.86165      0.0049477397   0.0049759041  -0.012016424   -0.0030073161   0.0049635652  -0.012089205   -0.0030118471  -20.90967      -4.0783366     -26.829239      9.8007508      1.5409327      0.7340482      64.803317      62.18063       54.389623      1              219163.59      1.2555174      9295.2556      12035.896     -3383.7026      889.939       -901.86946     -17345.118     -27093.868     -45340.855      24.8         
     25000   296.84019     -26319.544      17752.228     -8567.3158      314.19758      928.72994      755.01647     -741.15367      0.0049875415   0.0050231633  -0.010493028   -0.00087273507  0.0050105893  -0.010548468   -0.00087311612 -24.828174     -18.567821      9.5320974      20.412097     -7.1513272     -11.146448      64.817031      62.092348      54.448332      1              219135.03      1.2556811      9222.2634      12016.447     -3072.2121      890.3106      -889.79998     -17392.031     -27094.522     -45376.353      25           
     25200   296.33819     -26604.368      17722.207     -8882.1612      487.52632      121.83695      776.74234      563.99965      0.0050273417   0.005059965   -0.0087972497   0.00073910341  0.0050472064  -0.008836174    0.00073883041  10.668069     -29.947832      14.794385      2.2975129     -5.1122419      19.512015      64.838388      62.133862      54.45279       1              219371.74      1.2543261      9164.6868      11929.217     -3242.4353      911.19411     -898.86309     -17374.7       -27093.468     -45367.031      25.2         
     25400   297.58758     -26351.308      17796.925     -8554.3833     -1291.2095     -1654.6836     -1304.5912     -914.35358      0.0050671403   0.0050940826  -0.0068767373   0.0014826616   0.0050811517  -0.006900491    0.0014815635   4.2695271      23.786938     -12.60146       20.307662      1.3537978     -3.1463933      64.878939      62.207536      54.456788      1              219785.36      1.2519656      9071.6452      12000.998     -2992.5123      902.1079      -923.36346     -17316.012     -27094.172     -45333.547      25.4         
     25600   299.1803      -26272.503      17892.176     -8380.3264     -483.19119     -782.00901      576.83917     -1244.4037      0.0051069374   0.0051373116  -0.0051205548   0.0028805738   0.0051241606  -0.0051337098   0.0028764329   6.4477398      14.598221     -9.1716684     -0.67791878     4.2445303     -4.8939674      64.834074      62.16977       54.48798       1              219625.76      1.2528754      9267.9316      11987.545     -3043.6511      890.95954     -941.34368     -17339.855     -27094.089     -45375.288      25.6         
     25800   298.7535      -26610.112      17866.652     -8743.4597      1548.4174      1445.0987      2368.9499      831.20352      0.0051467328   0.0051794078  -0.0037311267   0.0046686782   0.0051660408  -0.0037381047   0.0046578137  -18.771545     -13.118563      13.142215      13.754924     -5.3509501     -10.024527      64.859159      62.146223      54.547719      1              219868.32      1.2514932      9353.4065      11999.244     -3548.1433      914.68787     -858.03953     -17375.825     -27095.442     -45329.307      25.8         
     26000   297.06381     -26356.864      17765.601     -8591.2627     -246.67711      194.77782     -325.92896     -608.88019      0.0051865267   0.0052185027  -0.0024913522   0.0068564106   0.0052049335  -0.0024944607   0.0068330123  -0.94521177    -16.320583      8.2953757      21.857235      5.778834       4.3240535      64.94337       62.158785      54.503242      1              220018.74      1.2506376      9124.6243      12074.668     -3069.1304      904.76865     -935.24379     -17360.885     -27095.666     -45391.795      26           
     26200   295.04673     -26365.462      17644.972     -8720.4896     -1084.9949     -549.61027     -1882.6437     -822.73077      0.005226319    0.0052548553  -0.00082533038  0.0085153511   0.0052410967  -0.00082567115  0.0084793      11.340583      2.9351532     -0.89805827     9.3198186     -2.9076507      13.376397      64.96574       62.203605      54.436681      1              219984.25      1.2508337      9033.7048      11893.607     -2772.3856      893.87001     -935.93862     -17383.477     -27094.843     -45414.258      26.2         
     26400   296.20627     -26378.902      17714.318     -8664.5848      656.98694      873.25688      336.07213      761.6318       0.0052661097   0.0052905475   0.0012644882   0.0091015156   0.0052766018   0.0012636894   0.0090603464   13.670337      3.2397168     -15.143724      1.1819036     -2.4052089      10.072915      64.863374      62.255579      54.400541      1              219675.2       1.2525934      9283.142       11988.722     -3272.183       874.75988     -801.03775     -17358.262     -27094.043     -45253.343      26.4         
     26600   300.13277     -26614.77       17949.138     -8665.6322      487.7655       1682.4381     -58.143876     -160.99769      0.0053058988   0.0053210465   0.0037542616   0.0091535134   0.0053069397   0.0037472319   0.0091118739  -1.8324915      3.271018      -2.9204441      8.8841291      9.9537687     -1.7894637      64.753935      62.367669      54.479007      1              220016.3       1.2506514      9315.3884      11861.876     -3243.0157      888.48095     -967.82969     -17375.219     -27094.451     -45437.5        26.6         
     26800   295.61871     -26445.235      17679.179     -8766.0554     -524.63553     -307.25357     -14.305097     -1252.3479      0.0053456863   0.0053575846   0.0053056478   0.0088028971   0.0053432838   0.0052916225   0.0087643775   11.088537     -6.2677251     -11.670162      21.593507      9.6798669      10.323965      64.606261      62.408051      54.583989      1              220079.96      1.2502897      9201.947       12000.848     -3111.796       891.68547     -973.30991     -17360.038     -27094.571     -45427.919      26.8         
     27000   300.07879     -26400.867      17945.91      -8454.9576     -725.7384      -230.83018     -1531.8707     -414.51436      0.0053854723   0.0053892518   0.0055191376   0.0073895527   0.0053747818   0.005503963    0.0073623837  -22.600715     -6.2286394      17.430639      25.537054      5.8513474      6.4053965      64.493852      62.50433       54.644349      1              220279.3       1.2491583      9113.8069      12013.805     -3069.1064      897.08472     -941.60057     -17321.608     -27093.248     -45356.457      27           
     27200   299.99426     -26533.97       17940.854     -8593.1158     -166.74914      671.0208      -72.654886     -1098.6133      0.0054252566   0.0054266237   0.0052806869   0.0052065205   0.0054119526   0.005266793    0.0051930134   4.3126366      35.117773      21.207482      18.410147      5.835067      -3.4746244      64.427865      62.533676      54.63336       1              220112.96      1.2501022      9132.7102      11987.508     -3164.9159      909.71248     -968.75335     -17336.671     -27093.561     -45398.985      27.2         
     27400   298.92391     -26489.702      17876.843     -8612.8583      504.77907      111.19964      432.84246      970.29512      0.0054650394   0.0054732109   0.0047104692   0.0034753378   0.0054582873   0.0046994097   0.0034693127   2.3349059     -14.350848      16.082475      22.859426      2.714071       0.76049309     64.357778      62.45728       54.46059       1              218910.43      1.2569694      9342.9827      11872.862     -3151.6854      892.12005     -965.8932      -17385.798     -27094.29      -45445.981      27.4         
     27600   296.19562     -26372.066      17713.681     -8658.3849      823.13409      1353.2982      431.45799      684.64611      0.0055048206   0.0055098073   0.003553812    0.0024429728   0.0054946839   0.0035475121   0.0024399936  -12.923821     -19.163689     -32.203363      6.3210242     -2.1661879     -8.8231276      64.320204      62.495292      54.352896      1              218482.88      1.2594292      9231.0169      11980.315     -3112.465       898.93648     -905.66709     -17369.687     -27094.515     -45369.869      27.6         
[...]
    744000   297.75872     -26405.44       17807.16      -8598.2799      670.35057     -86.224689      893.52869      1203.7477      0.13871792     0.14612129    -0.0068124594  -0.0071391498   0.13638345    -0.0068357701  -0.0071647555  -15.386699      3.7131031      3.409008       80.806986      7.9128169      4.1342801      64.251514      63.071338      54.359883      1              220289.56      1.2491         9239.6464      11822.304     -3046.9156      904.35173     -900.40233     -17329.252     -27095.172     -45324.826      744          
    744200   298.70946     -26178.446      17864.018     -8314.4271     -182.98064     -476.78622      47.111054     -119.26674      0.13875274     0.14625038    -0.0064692783  -0.0079122142   0.13649607    -0.0064902948  -0.0079436819   7.9998638      8.5512992      3.6190683      78.651852      11.69285       8.3596284      64.381724      63.031806      54.317075      1              220423.92      1.2483386      9280.4578      11880.25      -2886.1511      894.05602     -922.11764     -17331.251     -27093.69      -45347.059      744.2        
    744400   296.74228     -26161.315      17746.373     -8414.9419      228.45519      633.52627      72.339021     -20.499711      0.13878755     0.14653699    -0.0071429534  -0.0091729635   0.13674608    -0.0071685864  -0.0092152942   11.232648     -4.510356      -11.092623      87.814056      5.2562249     -0.97447028     64.416814      62.923651      54.278299      1              220008.46      1.250696       9268.4955      11910.194     -2980.9919      887.13617     -820.32355     -17331.442     -27094.383     -45246.149      744.4        
    744600   298.49909     -26243.923      17851.437     -8392.4858      75.985647      208.92736      1117.9219     -1098.8923      0.13882237     0.14670074    -0.0082621275  -0.011422719    0.13688889    -0.0082964481  -0.011488459   -9.6687874     -15.021245     -15.802686      94.99474       7.4094713      6.6525367      64.479574      62.869285      54.319804      1              220200.8       1.2496036      9280.4725      11904.689     -2943.0815      873.16096     -969.19432     -17296.215     -27093.755     -45359.164      744.6        
    744800   300.22771     -26035.817      17954.815     -8081.0021     -501.57426     -373.22366     -808.85662     -322.64251      0.13885719     0.14684103    -0.010232489   -0.014294547    0.13701123    -0.010285201   -0.014397699    18.701522     -4.8923935     -22.283288      88.14027      -7.6174057     -7.7645135      64.488748      62.825219      54.425981      1              220507.94      1.247863       9192.9206      12010.162     -2733.7899      881.45968     -988.43741     -17304.119     -27094.013     -45386.57       744.8        
    745000   299.5833      -26329.435      17916.277     -8413.158       543.15507      402.19         929.15233      298.12289      0.138892       0.14707965    -0.01096168    -0.016261041    0.13721928    -0.011022202   -0.016394703    13.898506      9.842508       12.578292      99.451792     -3.4625163     -2.6058476      64.427674      62.738652      54.588368      1              220651.94      1.2470487      9324.7829      12007.833     -3233.8443      892.73425     -901.78767     -17325         -27094.154     -45320.941      745          
    745200   296.91763     -26197.183      17756.86      -8440.3232      37.9627        280.73807      972.60074     -1139.4507      0.13892681     0.14715742    -0.011774212   -0.01729225     0.13728707    -0.011844077   -0.017443507    5.7437568     -19.203275      15.970352      84.757026      3.7624277     -13.264743      64.304086      62.721849      54.691955      1              220587.48      1.247413       9316.2822      11830.101     -2927.0911      909.40649     -902.21304     -17329.708     -27093.961     -45325.882      745.2        
    745400   299.54156     -26000.462      17913.781     -8086.6805      16.056463     -394.71676      165.75785      277.12829      0.13896162     0.14709407    -0.0131807     -0.017534207    0.13723185    -0.013268336   -0.017689752   -16.699259      6.6577343     -0.42645916     82.224814     -2.2275465     -11.203093      64.249891      62.766094      54.719388      1              220667.68      1.2469597      9211.5024      11904.388     -2715.4896      897.00582     -855.75252     -17348.412     -27093.703     -45297.868      745.4        
    745600   299.88515     -26155.599      17934.329     -8221.2701      837.82759      942.9626       1671.8198     -101.29962      0.13899643     0.14701798    -0.014414104   -0.015861736    0.13716551    -0.014518996   -0.015988879   -2.4428425      5.6515459      12.602692      81.680818      2.0732688     -17.599373      64.264109      62.815904      54.720407      1              220895.78      1.2456721      9397.9721      11871.391     -3092.0285      916.87119     -781.99443     -17374.187     -27093.623     -45249.805      745.6        
    745800   300.33393     -26429.837      17961.168     -8468.6688     -44.444131     -783.54695      112.95583      537.25873      0.13903124     0.14723957    -0.016050703   -0.012945342    0.13735868    -0.016180911   -0.013029863    1.552518       9.7950999      4.0377657      93.086639     -6.4793963      2.7906872      64.324002      62.736814      54.704654      1              220759.7       1.2464399      9140.4829      11935.42      -3104.9345      894.83597     -889.54386     -17311.547     -27094.55      -45295.641      745.8        
    746000   298.01263     -26319.262      17822.345     -8496.917      -851.01484     -902.55966     -1295.6797     -354.80514      0.13906605     0.14750261    -0.016916677   -0.010982316    0.13758794    -0.017061398   -0.011043066    11.919865     -5.1335752      8.9391468      82.366204     -8.3634413      2.1284566      64.295887      62.640095      54.64445       1              220080.54      1.2502864      9193.3782      11911.558     -2900.0663      877.34106     -970.91885     -17336.219     -27094.335     -45401.473      746          
    746200   294.44313     -26233.132      17608.874     -8624.2575     -7.3468393     -95.811267      83.970539     -10.19979       0.13910085     0.14749117    -0.017090276   -0.0085644339   0.13757797    -0.017238      -0.0086013194  -3.5653304     -6.6179172     -21.497505      72.530471      0.53475899    -1.9974539      64.233212      62.66182       54.605783      1              219786.63      1.2519583      9182.4899      11928.234     -2934.683       901.29796     -901.18816     -17313.661     -27095.622     -45310.471      746.2        
    746400   299.45206     -26142.288      17908.429     -8233.8597     -570.57812     -353.34757      340.24843     -1698.6352      0.13913566     0.14728833    -0.016313887   -0.0066945441   0.13740119    -0.016448424   -0.0067170531   2.5219926     -6.2650167     -16.616995      86.419842     -12.852882      8.2032249      64.186062      62.766196      54.692634      1              220341.03      1.2488083      9145.6361      12091.151     -2889.7391      888.32707     -990.62178     -17292.928     -27094.113     -45377.663      746.4        
    746600   296.66587     -26148.893      17741.803     -8407.0891     -89.264089      337.81439      776.95342     -1382.5601      0.13917046     0.1472994     -0.015348715   -0.0052173616   0.13741083    -0.015467725   -0.0052310195  -1.4440668     -13.925341      9.5851044      80.446198     -4.8060544      4.6893631      64.117774      62.77823       54.759011      1              220415.99      1.2483836      9269.2044      11900.548     -2915.4574      888.97904     -879.59897     -17318.679     -27093.889     -45292.167      746.6        
    746800   298.2607      -26278.597      17837.181     -8441.4162     -384.47525     -233.89299     -454.42589     -465.10686      0.13920527     0.14720135    -0.013255767   -0.004169241    0.13732536    -0.013344409   -0.0041779565  -12.388185      13.441137      23.839953      75.104304     -3.284345       1.8687105      64.089241      62.837486      54.720329      1              220370.08      1.2486437      9280.2279      11925.022     -3015.1063      904.66329     -965.01326     -17314.448     -27093.943     -45373.404      746.8        
    747000   297.43051     -26181.791      17787.532     -8394.2589     -31.370913      531.12318      92.963669     -718.19959      0.13924007     0.1472068     -0.011580191   -0.0030268739   0.13733012    -0.011647764   -0.0030314642   3.2586795      17.91643      -1.9744002      103.76334      9.7006958     -0.61870618     64.075051      62.851951      54.628469      1              220002.06      1.2507324      9337.5016      11955.254     -2983.4677      908.31128     -987.04127     -17318.213     -27094.135     -45399.39       747          
    747200   296.9749      -26255.729      17760.285     -8495.4441      669.09716      1291.7624      559.91566      155.61344      0.13927487     0.14710645    -0.010841489   -0.0022089375   0.13724264    -0.010900687   -0.0022113808  -6.5579727     -47.188461     -14.283473      77.409064      7.5323844      7.9951204      64.054011      62.912291      54.548068      1              219816.96      1.2517856      9250.0096      11810.384     -2851.3216      887.64953     -922.12137     -17335.416     -27094.913     -45352.451      747.2        
    747400   297.20578     -25997.796      17774.092     -8223.704      -481.03649     -274.288       -1320.0898      151.26828      0.13930967     0.14672515    -0.010592914   -0.0019899583   0.13691019    -0.010649418   -0.0019919409  -2.9752303      22.640592     -2.4543013      72.494465     -0.5052292      3.7227985      64.131187      63.095045      54.51844       1              220601.24      1.2473353      9288.9316      12009.73      -2865.0541      919.19008     -941.40038     -17314.068     -27095.126     -45350.594      747.4        
    747600   297.94485     -25886.556      17818.291     -8068.2643     -152.39318     -643.324       -24.566272      210.71073      0.13934446     0.14659831    -0.010689703   -0.0020130641   0.13679957    -0.010747248   -0.0020150931  -6.7563654      8.5961895      7.6023033      72.208631      0.79128466    -9.1535994      64.248919      63.167329      54.497689      1              221175.2       1.2440984      9276.1116      12195.375     -3020.4527      903.81927     -819.63828     -17327.77      -27094.001     -45241.409      747.6        
    747800   298.21357     -26066.481      17834.362     -8232.1187     -719.11673     -777.49099     -734.03377     -645.82543      0.13937926     0.1466478     -0.0095940717  -0.0023133956   0.13684273    -0.0096403913  -0.0023160757   16.902211      19.607965      17.640567      75.770132     -9.7191122      26.384844      64.359115      63.162594      54.402436      1              221150.73      1.244236       9201.3445      12104.15      -2957.5939      887.2606      -882.822       -17324.179     -27094.642     -45301.642      747.8        
    748000   297.77425     -26359.971      17808.089     -8551.8815     -240.17127     -1032.4504     -749.25817      1061.1948      0.13941406     0.14695533    -0.0076373468  -0.0039488123   0.13711089    -0.0076666607  -0.0039566295  -4.3323118      1.9793885     -2.4982138      83.233187     -6.4824684     -4.4020227      64.464376      63.045357      54.205522      1              220300.98      1.2490353      9271.1785      11909.929     -3109.0976      883.097       -875.32682     -17345.457     -27094.294     -45315.078      748          
    748200   297.93879     -26223.095      17817.929     -8405.1661     -249.26267     -675.67439     -540.13286      468.01923      0.13944885     0.14718018    -0.0060602554  -0.0060022394   0.13730691    -0.0060786933  -0.0060203252   1.5976386      1.2262694     -43.488984      88.006495      5.6359249     -5.1065451      64.555028      62.964472      54.134101      1              220037.43      1.2505313      9159.6032      11951.78      -2897.7075      900.38388     -900.87201     -17342.342     -27093.941     -45337.155      748.2        
    748400   297.67418     -25953.319      17802.105     -8151.2139     -563.78249     -887.26378     -1108.075       303.99128      0.13948364     0.1473008     -0.0048448133  -0.0068590578   0.13741205    -0.0048565874  -0.0068826893   5.2832345     -8.1562215     -5.1002924      98.33052       2.0170016     -1.6242824      64.61882       62.928977      54.214139      1              220456.17      1.248156       9263.3841      12085.795     -2809.6148      906.12707     -974.59405     -17330.95      -27093.466     -45399.01       748.4        
    748600   299.0038      -26420.016      17881.621     -8538.3952      188.77611     -485.48823      149.05513      902.76144      0.13951843     0.14739206    -0.0047299057  -0.0070369776   0.13749159    -0.0047411271  -0.0070618539  -2.1584297      10.364432      5.2741004      78.440271      13.748585     -3.4114712      64.657181      62.906249      54.313545      1              220911.69      1.2455823      9229.9271      11957.113     -3191.0534      888.55344     -868.33113     -17342.202     -27094.023     -45304.556      748.6        
    748800   298.33874     -26164.089      17841.848     -8322.2413     -561.52971     -847.22985     -485.14741     -352.21186      0.13955322     0.14779676    -0.0049717566  -0.0069884411   0.13784424    -0.0049841569  -0.0070129746   19.742592      15.813698      1.1821215      78.381428      0.16596795    -2.0763709      64.653086      62.748233      54.379432      1              220610.12      1.2472851      9255.2228      12006.727     -3022.954       900.57633     -877.93902     -17331.95      -27093.772     -45303.661      748.8        
    749000   303.06448     -26183.925      18124.466     -8059.4589      240.36819      632.52205      639.81458     -551.23205      0.13958801     0.14822119    -0.0054541369  -0.0078392395   0.13821396    -0.005469065   -0.0078701278   7.1027299     -19.71356       5.5029051      70.709779      5.9368547      2.5227165      64.523347      62.582616      54.400414      1              219671.04      1.2526171      9166.0478      11948.342     -2886.7699      909.99829     -867.21255     -17359.82      -27094.51      -45321.543      749          
    749200   300.85963     -26349.26       17992.607     -8356.6529      76.968717     -417.04274      563.4483       84.50059       0.1396228      0.14821727    -0.0072401071  -0.0090318623   0.13821054    -0.0072664439  -0.0090728969  -26.576849     -23.818956     -36.894546      84.94312       13.659753      5.3015329      64.442091      62.601011      54.484138      1              219796.64      1.2519013      9191.2711      11900.282     -3063.8569      866.905       -828.80442     -17322.017     -27093.039     -45243.861      749.2        
    749400   296.21523     -26113.282      17714.853     -8398.4294     -583.34765     -1679.2697      683.33057     -754.10383      0.13965759     0.14796685    -0.0095907883  -0.0092910016   0.13799242    -0.0096370761  -0.0093344322   3.5205345     -3.4065468     -1.0007558      68.583131      10.683484     -9.0691203      64.433904      62.725263      54.607245      1              220702.48      1.2467631      9242.5995      11967.431     -2945.567       897.85978     -861.24349     -17321.187     -27093.175     -45275.606      749.4        
    749600   300.43547     -26283.225      17967.24      -8315.9842     -176.004       -802.39333      14.599863      259.78145      0.13969237     0.14793931    -0.011118822   -0.0090497751   0.13796843    -0.011181099   -0.009090973    31.145232      9.191024       15.315944      105.1274       2.3183567     -7.0697701      64.366905      62.753853      54.674218      1              220844         1.2459641      9304.8707      11954.209     -3190.6073      891.81978     -843.94951     -17306.896     -27092.671     -45243.516      749.6        
    749800   298.90585     -26118.107      17875.763     -8242.3441      498.0813      -225.03625      821.84227      897.43787      0.13972716     0.14808195    -0.012123564   -0.008678983    0.13809268    -0.012197654   -0.0087168647  -6.940386       7.114166       1.9058786      77.420325     -9.3809084     -5.0017011      64.226651      62.709241      54.677643      1              220219.92      1.2494951      9241.746       11890.485     -2848.7475      878.06237     -823.49025     -17363.051     -27093.111     -45279.653      749.8        
    750000   296.621       -26148.114      17739.12      -8408.994      -750.88581     -425.12172     -243.19591     -1584.3398      0.13976194     0.14810191    -0.012759654   -0.0081929584   0.13811006    -0.012841758   -0.0082267051  -2.1363715     -2.3344985      7.8453981      95.090172      6.906654      -5.9033496      64.198138      62.717392      54.691296      1              220205.74      1.2495755      9249.8128      11986.27      -2954.1659      911.5747      -947.10729     -17302.531     -27091.967     -45341.605      750          
Loop time of 18380.5 on 16 procs for 750000 steps with 20064 atoms

Performance: 3.525 ns/day, 6.808 hours/ns, 40.804 timesteps/s, 818.693 katom-step/s
99.1% CPU use with 16 MPI tasks x no OpenMP threads

MPI task timing breakdown:
Section |  min time  |  avg time  |  max time  |%varavg| %total
---------------------------------------------------------------
Pair    | 10425      | 11092      | 11562      | 271.3 | 60.34
Bond    | 2818.3     | 2914.9     | 3024.6     | 109.8 | 15.86
Kspace  | 821.01     | 1349       | 2113.9     | 898.6 |  7.34
Neigh   | 2254       | 2254.3     | 2254.6     |   0.4 | 12.26
Comm    | 197.99     | 200.88     | 204.2      |  14.1 |  1.09
Output  | 94.418     | 94.424     | 94.455     |   0.1 |  0.51
Modify  | 307.91     | 409.4      | 452.56     | 283.9 |  2.23
Other   |            | 66.12      |            |       |  0.36

Nlocal:           1254 ave        1295 max        1199 min
Histogram: 1 0 1 1 0 4 5 3 0 1
Nghost:        12010.8 ave       12106 max       11950 min
Histogram: 1 2 5 2 1 1 2 1 0 1
Neighs:         656469 ave      687764 max      626495 min
Histogram: 1 0 2 1 3 4 3 1 0 1

Total # of neighbors = 10503502
Ave neighs/atom = 523.4999
Ave special neighs/atom = 5.8041268
Neighbor list builds = 29653
Dangerous builds = 0

#-------------------Wrap up-------------------
write_restart   ${myid}.restart
write_restart   shear_1_AroCy_L10_pxld_97_replicate_1_FF_PCFF-class2xe.restart
System init for write_restart ...
PPPM initialization ...
  using 12-bit tables for long-range coulomb (../kspace.cpp:342)
  G vector (1/distance) = 0.1872849
  grid = 18 20 15
  stencil order = 5
  estimated absolute RMS force accuracy = 0.020556672
  estimated relative force accuracy = 6.1905807e-05
  using double precision KISS FFT
  3d grid and FFT values/proc = 1950 400
Generated 45 of 45 mixed pair_coeff terms from sixthpower/sixthpower mixing rule
write_data      ${myid}.data
write_data      shear_1_AroCy_L10_pxld_97_replicate_1_FF_PCFF-class2xe.data
System init for write_data ...
PPPM initialization ...
  using 12-bit tables for long-range coulomb (../kspace.cpp:342)
  G vector (1/distance) = 0.1872849
  grid = 18 20 15
  stencil order = 5
  estimated absolute RMS force accuracy = 0.020556672
  estimated relative force accuracy = 6.1905807e-05
  using double precision KISS FFT
  3d grid and FFT values/proc = 1950 400
Generated 45 of 45 mixed pair_coeff terms from sixthpower/sixthpower mixing rule
Total wall time: 5:06:21
