thermo_style    custom step temp pe ke etotal press pxx pyy pzz v_etrue v_eengxy v_eengxz v_eengyz v_etruexy v_etruexz v_etrueyz                 f_sxx_ave f_syy_ave f_szz_ave f_sxy_ave f_sxz_ave f_syz_ave lx ly lz v_dir vol density ebond eangle edihed                 eimp evdwl ecoul elong epair v_Time

restart         ${nsteps} rst1.a.${myid} rst2.a.${myid}
restart         200 rst1.a.${myid} rst2.a.${myid}
restart         200 rst1.a.shear_3_EPON_862_pxld_88.2_replicate_1_FF_PCFF-class2xe rst2.a.${myid}
restart         200 rst1.a.shear_3_EPON_862_pxld_88.2_replicate_1_FF_PCFF-class2xe rst2.a.shear_3_EPON_862_pxld_88.2_replicate_1_FF_PCFF-class2xe
dump            6 all atom 10000 dump.${myid} #every picosecond
dump            6 all atom 10000 dump.shear_3_EPON_862_pxld_88.2_replicate_1_FF_PCFF-class2xe 
dump_modify     6 scale no sort id


#-------------------Run-------------------
run             ${steps}
run             750000

CITE-CITE-CITE-CITE-CITE-CITE-CITE-CITE-CITE-CITE-CITE-CITE-CITE

Your simulation uses code contributions which should be cited:

- Type Label Framework: https://doi.org/10.1021/acs.jpcb.3c08419

@Article{Gissinger24,
 author = {Jacob R. Gissinger, Ilia Nikiforov, Yaser Afshar, Brendon Waters, Moon-ki Choi, Daniel S. Karls, Alexander Stukowski, Wonpil Im, Hendrik Heinz, Axel Kohlmeyer, and Ellad B. Tadmor},
 title = {Type Label Framework for Bonded Force Fields in LAMMPS},
 journal = {J. Phys. Chem. B},
 year =    2024,
 volume =  128,
 number =  13,
 pages =   {3282–-3297}
}

CITE-CITE-CITE-CITE-CITE-CITE-CITE-CITE-CITE-CITE-CITE-CITE-CITE

PPPM initialization ...
  using 12-bit tables for long-range coulomb (../kspace.cpp:342)
  G vector (1/distance) = 0.18106493
  grid = 15 15 15
  stencil order = 5
  estimated absolute RMS force accuracy = 0.022088471
  estimated relative force accuracy = 6.6518776e-05
  using double precision KISS FFT
  3d grid and FFT values/proc = 1690 256
Generated 66 of 66 mixed pair_coeff terms from sixthpower/sixthpower mixing rule
Neighbor list info ...
  update: every = 1 steps, delay = 0 steps, check = yes
  max neighbors/atom: 5000, page size: 100000
  master list distance cutoff = 14
  ghost atom cutoff = 14
  binsize = 7, bins = 9 9 9
  1 neighbor lists, perpetual/occasional/extra = 1 0 0
  (1) pair lj/class2/coul/long, perpetual
      attributes: half, newton on
      pair build: half/bin/newton/tri
      stencil: half/bin/3d/tri
      bin: standard
WARNING: Inconsistent image flags (../domain.cpp:1051)
WARNING: Bond/angle/dihedral extent > half of periodic box length (../domain.cpp:1172)
Per MPI rank memory allocation (min/avg/max) = 19.1 | 19.47 | 19.51 Mbytes
   Step          Temp          PotEng         KinEng         TotEng         Press           Pxx            Pyy            Pzz          v_etrue        v_eengxy       v_eengxz       v_eengyz      v_etruexy      v_etruexz      v_etrueyz      f_sxx_ave      f_syy_ave      f_szz_ave      f_sxy_ave      f_sxz_ave      f_syz_ave          Lx             Ly             Lz           v_dir          Volume        Density         E_bond        E_angle        E_dihed        E_impro         E_vdwl         E_coul         E_long         E_pair         v_Time    
         0   298            24727.007      18706.318      43433.324      650.21516      1181.2609      202.41915      566.96544      0              0              0              0              0              0              0              0              0              0              0              0              0              58.499066      57.166683      59.046423      3              197462.9       1.2155166      9120.1982      20819.52      -7887.8271      402.81916     -2725.6327      24948.657     -19950.729      2272.296       0            
       200   297.35858      24848.614      18666.054      43514.668     -527.98259     -474.92193     -262.67314     -846.35268      3.99992e-05   -0.000863283    0.0011613477   3.8974294e-05 -0.00086365584  0.0011606739   3.8973534e-05  1.2924275     -26.0282       -15.706643      15.677692     -23.285141     -3.4346801      58.488068      57.22107       59.080532      3              197727.76      1.2138884      9478.0631      20665.57      -7989.0194      386.35297     -2736.688       24996.03      -19951.696      2307.6467      0.2          
       400   294.96996      24960.461      18516.113      43476.575     -479.67408     -1854.5217      187.8568       227.64271      7.99968e-05   -0.0023878659   0.0040157413   7.0346986e-05 -0.0023907214   0.0040076997   7.0344512e-05  5.5067174      13.340786      30.750062     -1.8217191     -9.6654512     -9.893114       58.457442      57.341232      59.093051      3              198081.19      1.2117225      9492.7367      20618.602     -7929.565       398.3683      -2688.7924      25019.264     -19950.152      2380.3198      0.4          
       600   301.45324      24984.197      18923.088      43907.285      616.61987      792.36788      692.46663      365.02509      0.0001199928  -0.0035974769   0.0070577678   9.4576943e-05 -0.0036039634   0.0070329783   9.4572471e-05 -1.6890109     -11.139798     -0.70242281    -3.8228016     -4.5927032     -7.4738972      58.410207      57.464188      59.060894      3              198237.6       1.2107665      9442.8989      20660.704     -7867.0151      415.52194     -2686.911       24964.623     -19945.624      2332.088       0.6          
       800   299.32393      24943.397      18789.425      43732.822     -87.93909       641.70659     -812.3125      -93.211359      0.0001599872  -0.0039951245   0.010025806    0.0001201981  -0.0040031264   0.0099758808   0.00012019088  14.582971      10.019607      17.040111     -13.464216      0.48969334     0.49808725     58.373103      57.579538      58.95026       3              198137.5       1.2113781      9467.9658      20557.63      -7800.1165      405.3063      -2706.1561      24964.329     -19945.561      2312.6121      0.8          
      1000   297.86312      24909.913      18697.725      43607.638      545.09247      246.58927      378.93276      1009.7554      0.00019998    -0.00348096     0.010859371    0.00016284616 -0.0034870326   0.010800831    0.0001628329  -22.388726      2.831168      -12.772754     -1.1572988      23.344391      0.98363954     58.348655      57.598393      58.852379      3              197790.41      1.2135039      9407.7581      20569.087     -7811.0368      390.99591     -2651.0038      24952.219     -19948.107      2353.1088      1            
      1200   299.09043      24679.298      18774.767      43454.065      226.92393      409.24819     -6.4027678      277.92636      0.0002399712  -0.0035782601   0.010294842    0.000203766   -0.0035846774   0.010242211    0.00020374524 -12.697776      10.150997     -7.5904776      8.0939553      13.356936     -9.5836197      58.406126      57.592541      58.894968      3              198108.37      1.2115563      9318.7297      20589.653     -7953.9039      403.41774     -2755.6445      25024.204     -19947.159      2321.401       1.2          
      1400   297.63678      24788.12       18683.518      43471.637     -444.82749     -325.2084      -773.24833     -236.02573      0.00027996081 -0.0044734383   0.0087766509   0.00024162268 -0.004483474    0.00873836     0.0002415935   7.953985       3.1669652      13.517519      11.194071      5.865893      -5.0825547      58.452972      57.522824      58.857764      3              197902.17      1.2128186      9477.2239      20522.217     -7872.7074      381.67887     -2758.7175      24989.753     -19951.329      2279.7069      1.4          
      1600   299.49821      24982.635      18800.365      43783         -554.19532     -426.06443     -722.01421     -514.50731      0.00031994881 -0.0057530093   0.0075115687   0.00027787525 -0.0057696216   0.0074834974   0.00027783665  4.6303688      5.9084841     -1.058035       2.8837755     -2.0723788     -6.8515085      58.497657      57.461597      58.843575      3              197794.96      1.213476       9560.0873      20670.493     -7991.2109      393.8994      -2709.9965      25009.103     -19949.741      2349.3657      1.6          
      1800   298.82628      25031.138      18758.186      43789.324     -118.92203      415.86596     -532.15332     -240.47872      0.00035993522 -0.0081389684   0.0068929691   0.00030536419 -0.0081722706   0.0068693211   0.00030531758  3.8132981     -6.1837051      0.68720514     11.64556      -13.555489     -13.708038      58.511648      57.42607       58.803797      3              197586.29      1.2147576      9681.1002      20620.213     -7962.7857      398.22064     -2736.94        24979.4       -19948.07       2294.3903      1.8          
      2000   297.49909      24882.75       18674.874      43557.624      334.799        79.19703       294.81593      630.38403      0.00039992002 -0.010100912    0.0065751457   0.00033514188 -0.010152272    0.0065536237   0.00033508574  3.3736188     -2.457856      -17.025633     -14.150766      10.895767     -14.478457      58.497081      57.428464      58.813458      3              197577.78      1.2148099      9477.1437      20809.316     -8094.477       390.18494     -2781.0434      25026.502     -19944.876      2300.5825      2            
      2200   296.57055      24934.377      18616.587      43550.964     -592.50645     -661.9007      -255.07398     -860.54466      0.00043990323 -0.012271556    0.0062169882   0.00036518982 -0.012347473    0.0061977425   0.00036512316 -0.10243908     2.0069927      4.2244636     -1.1357846     -5.2606233     -2.2430205      58.475849      57.402771      58.842967      3              197516.76      1.2151852      9428.0823      20592.608     -7807.5196      410.36384     -2724.0536      24983.569     -19948.674      2310.8419      2.2          
      2400   299.18452      24761.487      18780.674      43542.161      224.06622      822.69777      216.52549     -367.02461      0.00047988484 -0.014916184    0.0057131308   0.00039576608 -0.015028549    0.0056968728   0.00039568778  2.3554959      3.1272346     -12.998832      2.113719      -8.6198876     -12.644345      58.452242      57.340518      58.918524      3              197476.15      1.2154351      9330.6218      20625.655     -7851.9609      411.76734     -2772.5295      24969.035     -19951.101      2245.4044      2.4          
      2600   298.07136      24715.775      18710.798      43426.573     -538.71103     -636.89063      78.495662     -1057.7381      0.00051986485 -0.017466654    0.005442276    0.00042523689 -0.017620996    0.0054275203   0.0004251465   6.7225584      2.4346041      10.320503     -8.6911674     -4.9600799     -7.3478438      58.418992      57.232305      59.003637      3              197275.92      1.2166687      9342.5222      20532.846     -7740.5469      373.34569     -2780.7195      24937.157     -19948.829      2207.6081      2.6          
      2800   297.23699      24851.043      18658.422      43509.465     -424.2465      -631.76851      421.10804     -1062.079       0.00055984326 -0.018912878    0.0062825143   0.00044048942 -0.019094014    0.0062628616   0.00044039243 -23.394449     -15.248969     -8.5547942     -20.592007     -20.410812      1.3433921      58.398358      57.160088      59.108367      3              197306.99      1.2164771      9431.793       20568.056     -7792.4004      395.63404     -2778.701       24971.596     -19944.935      2247.9609      2.8          
      3000   299.14896      25062.607      18778.441      43841.049     -509.88948     -883.75871      831.52477     -1477.4345      0.00059982007 -0.018182155    0.008071683    0.00045069922 -0.018349482    0.0080392812   0.00045059769  6.8443284     -24.214004     -10.36194      -24.426796      1.6739239     -3.7483123      58.466696      57.199034      59.286686      3              198268.82      1.2105758      9494.7909      20678.553     -7731.9377      399.0334      -2897.0773      25068.301     -19949.055      2222.168       3            
      3200   295.42126      25132.453      18544.443      43676.895     -607.33254     -1320.5612      34.095282     -535.53168      0.00063979529 -0.016644713    0.0092889617   0.00048255391 -0.016784793    0.0092460846   0.00048243751  10.312577      19.403619      41.545002     -1.4049978      13.866114     -19.665991      58.430357      57.22532       59.299137      3              198278.28      1.2105181      9511.8544      20867.712     -8035.1426      400.43551     -2667.639       25007.789     -19952.556      2387.5933      3.2          
      3400   297.88321      25006.939      18698.987      43705.925     -638.04836      408.036       -2036.1577     -286.02334      0.0006797689  -0.015213891    0.0095671382   0.00053232947 -0.01533081     0.0095216629   0.00053218783 -11.9588        9.5507115      11.889168      5.8010918      5.8664529     -13.49408       58.407953      57.199955      59.221942      3              197856.5       1.2130986      9399.5526      20708.261     -7827.8995      389.29458     -2691.4131      24976.172     -19947.029      2337.7296      3.4          
      3600   299.71287      24820.227      18813.84       43634.067      380.95058     -222.68594      568.06385      797.47383      0.00071974092 -0.013572329    0.009662343    0.00058825575 -0.013665275    0.0096159611   0.0005880828   8.1782227      1.8951503     -9.0606117     -7.9707386     -0.011593677   -3.6478322      58.429826      57.129767      59.088262      3              197241.49      1.2168811      9286.4789      20585.756     -7838.8444      395.78751     -2684.459       25025.573     -19950.065      2391.049       3.6          
      3800   300.23837      24763.264      18846.827      43610.091      368.1806       153.80746      200.20302      750.53132      0.00075971135 -0.010695981    0.0098184043   0.00065455518 -0.010753594    0.0097705169   0.00065434106 -17.000018     -22.191365     -17.59464      -6.2964718      1.1665857     -5.2220098      58.506437      57.135551      59.07369       3              197471.38      1.2154644      9355.7286      20657.991     -7956.9956      399.08595     -2783.0482      25037.746     -19947.244      2307.4542      3.8          
      4000   296.47389      24856.784      18610.52       43467.304      288.64975      346.06833     -265.56966      785.4506       0.00079968017 -0.0065506067   0.0095822779   0.00073721646 -0.0065721561   0.0095366591   0.00073694485  28.506757      9.7875238      3.0361971      7.780504       16.692961     -13.955855      58.5542        57.177874      59.043554      3              197678.1       1.2141934      9579.293       20725.132     -8125.0883      398.12029     -2729.0155      24959.097     -19950.754      2279.3275      4            
      4200   297.38046      24830.305      18667.427      43497.733      380.57743      247.77116      606.68373      287.27741      0.0008396474  -0.0023692609   0.0083985142   0.00082071075 -0.0023720721   0.0083634429   0.00082037415  3.0781092      0.18147691    -5.3905168      6.0645867     -10.451527     -6.8536004      58.520966      57.141878      59.001401      3              197300.56      1.2165168      9498.6844      20729.535     -8048.0362      397.43209     -2788.3468      24990.203     -19949.166      2252.69        4.2          
      4400   296.68225      24739.594      18623.599      43363.193     -806.04428     -1320.9809     -140.95088     -956.20103      0.00087961303  5.6418047e-05  0.0084420751   0.00088093889  5.6416456e-05  0.0084066401   0.00088055109  3.6716116     -8.9773156     -6.2413166      27.103568     -13.770234     -14.564661      58.441693      57.123039      59.013281      3              197008         1.2183233      9366.7398      20515.013     -7763.9137      411.13148     -2821.8941      24982.723     -19950.206      2210.6234      4.4          
      4600   299.6264       24910.234      18808.412      43718.645      159.52087      361.86334     -117.16194      233.8612       0.00091957706  0.0011332781   0.008836938    0.00092951721  0.0011326364   0.0087981208   0.00092908547 -11.803149     -12.041683     -16.725659      9.7116424     -3.424272       3.8830648      58.405799      57.156647      59.076001      3              197212.21      1.2170618      9416.5653      20679.038     -7991.3946      410.08163     -2655.8017      25002.737     -19950.992      2395.9434      4.6          
      4800   296.96871      25071.405      18641.581      43712.986     -603.52692     -898.44783     -690.43433     -221.69859      0.00095953949  0.00078750292  0.010217412    0.00096538449  0.000787193    0.010165567    0.00096491881 -20.813633     -4.950801      -9.0617688      20.368848     -5.5743215     -15.256966      58.43034       57.287991      59.207458      3              198188.49      1.2110665      9308.9338      20691.471     -7597.3871      411.68203     -2772.6441      24978.243     -19948.893      2256.706       4.8          
      5000   298.68894      24842.332      18749.564      43591.896      144.44036      102.35239      155.83836      175.13032      0.00099950033 -0.00067584334  0.011415691    0.00098759362 -0.00067607182  0.011351024    0.00098710627  6.1277221      13.280671      33.879154      10.182533      3.1848167      2.0266508      58.470463      57.363211      59.320836      3              198965.26      1.2063384      9403.081       20796.097     -8031.9033      407.67272     -2770.5671      24987.7       -19949.749      2267.3847      5            
      5200   297.73875      24760.746      18689.918      43450.664      330.08928      21.386342      961.17601      7.705486       0.0010394596  -0.0028108166   0.012791312    0.0010013854  -0.0028147744   0.012710195    0.0010008843   27.68516       21.787171      36.351923     -3.2149275      8.1212834     -10.572854      58.411008      57.355452      59.192826      3              198307.2       1.2103415      9323.6914      20644.319     -7948.3936      412.29255     -2702.2842      24977.763     -19946.642      2328.8363      5.2          
      5400   299.68985      24699.468      18812.395      43511.863      528.16165      490.8848       1729.4131     -635.81298      0.0010794172  -0.004296323    0.013122842    0.0010247346  -0.0043055787   0.013037484    0.0010242099   15.149642     -0.84321635     13.854001      2.0077236      0.61647898    -13.754127      58.291822      57.310125      58.979999      3              197035.17      1.2181553      9325.534       20639.191     -7924.4043      389.23326     -2758.4361      24976.643     -19948.292      2269.9143      5.4          
      5600   299.25091      24909.803      18784.841      43694.644      607.12434     -470.19725      1169.8241      1121.7462      0.0011193733  -0.0054498122   0.013395736    0.0010496422  -0.0054647166   0.013306806    0.0010490917  -31.044017     -40.953267     -44.635285     -5.954644      -4.0970607     -3.4798607      58.230335      57.346256      58.901179      3              196688.22      1.2203041      9448.1981      20850.108     -7981.8976      400.32092     -2829.7556      24971.452     -19948.623      2193.0733      5.6          
      5800   295.94953      24964.764      18577.604      43542.368     -286.51353      91.705493     -550.32516     -400.92092      0.0011593277  -0.006523181    0.013849866    0.0010713434  -0.00654455     0.013754833    0.0010707699  -1.7234908      5.647109      -0.15257986     1.4892318      1.535648      -5.7553132      58.254605      57.480066      58.953836      3              197405.65      1.2158691      9366.2463      20750.949     -7809.8255      413.51882     -2782.677       24972.992     -19946.44       2243.8749      5.8          
      6000   298.41017      24826.046      18732.065      43558.112      1.5271692     -896.23924     -95.227256      996.048        0.0011992806  -0.0070903414   0.014588573    0.0010975585  -0.0071155973   0.014483183    0.0010969566   10.79524       8.7469255     -7.9316383      1.6363347     -8.0347073     -1.7900858      58.245998      57.558994      58.989862      3              197768.3       1.2136396      9244.8047      20710.289     -7834.8559      410.24147     -2748.9004      24992.703     -19948.235      2295.5675      6            
      6200   299.00011      24808.513      18769.098      43577.611     -160.98074     -1115.3916      561.75047      70.698859      0.0012392318  -0.0071524767   0.015312101    0.0011305651  -0.0071781783   0.015196054    0.0011299265  -5.0162453      39.475805      22.50354      -9.1225102      6.3867143     -3.2586683      58.243696      57.488218      59.034182      3              197665.7       1.2142695      9331.8995      20607.949     -7825.5212      411.31867     -2810.9287      25040.254     -19946.459      2282.8666      6.2          
      6400   296.0392       24898.049      18583.233      43481.281      23.495727     -125.32935      10.39573       185.42081      0.0012791815  -0.0074750015   0.015199959    0.0011668886  -0.0075030793   0.015085597    0.0011662083  -16.044381      1.8656214     -14.859588      11.667381      19.23799      -11.268393      58.305379      57.316958      59.014731      3              197220.56      1.2170102      9406.7235      20703.668     -7865.9287      398.38592     -2800.7467      25000.885     -19944.939      2255.2001      6.4          
      6600   300.51698      24590.971      18864.316      43455.287      129.20543      1127.8485     -143.2788      -596.95338      0.0013191296  -0.008163757    0.014016095    0.0012053272  -0.008197263    0.013918778    0.0012046014  -8.7840523      3.5600504     -15.223265     -4.4686881     -0.70626667    -0.21154041     58.377562      57.123523      59.049971      3              196915.83      1.2188936      9277.8941      20576.537     -7874.2118      400.97506     -2826.0921      24979.121     -19943.252      2209.7771      6.6          
      6800   295.88607      24749.11       18573.62       43322.73       594.754        1292.4018     -27.317748      519.17791      0.001359076   -0.0086767568   0.013186895    0.0012441985  -0.008714619    0.013100705    0.0012434252   14.191628     -22.719063      14.563325     -1.8966222      4.2770102     -23.974423      58.449613      57.077391      59.099287      3              197164.17      1.2173583      9367.0959      20700.669     -8042.6183      411.57982     -2753.4363      25010.088     -19944.267      2312.3843      6.8          
      7000   298.99735      24920.84       18768.924      43689.764     -226.69238     -222.77331      461.25485     -918.55869      0.0013990209  -0.009130186    0.01188816     0.0012914255  -0.0091721216   0.011818051    0.0012905923   7.7690995     -6.21267        27.918361      7.2287114     -1.0320432     -13.75429       58.494875      57.111158      59.041326      3              197239.95      1.2168906      9426.8623      20735.898     -7898.8902      419.74525     -2834.8858      25010.499     -19938.388      2237.2248      7            
      7200   299.1076       24946.135      18775.845      43721.979     -689.81083      1.8112507     -1040.0608     -1031.183       0.0014389642  -0.0098501917   0.01017121     0.0013429731  -0.0098990258   0.010119832    0.0013420721  -5.3748892     -9.9689221     -1.0099552     -4.4545894      12.149679     -9.5308497      58.525881      57.182395      58.91126       3              197155.37      1.2174126      9392.1784      20737.793     -7736.8941      422.57764     -2941.308       25019.428     -19947.64       2130.4799      7.2          
      7400   298.96002      24697.995      18766.581      43464.576      592.87736      1012.2461      144.3619       622.02408      0.0014789059  -0.0096775283   0.008716988    0.0014012013  -0.0097246599   0.0086792145   0.0014002205  -10.746974     -13.812311     -14.839467     -6.3958372     -11.898323     -17.546938      58.555538      57.268572      58.820481      3              197248.13      1.2168401      9348.4332      20613.584     -7889.0972      409.13786     -2820.3522      24983.677     -19947.388      2215.9365      7.4          
      7600   297.21542      24933.096      18657.067      43590.164     -761.05627     -833.07668     -407.12055     -1042.9716      0.001518846   -0.0091250864   0.0078025657   0.0014551014  -0.009166975    0.0077722831   0.0014540438   15.834988      16.450057     -4.7951286     -2.8878013     -2.3593262     -7.6501213      58.575964      57.334028      58.79846       3              197468.51      1.2154821      9209.9146      20711.428     -7577.7007      420.83249     -2863.3778      24979.528     -19947.527      2168.6224      7.6          
      7800   298.34766      24738.194      18728.141      43466.336      44.501345      283.45957      644.07254     -794.02807      0.0015587845  -0.0089031441   0.0069441984   0.001505399   -0.0089430139   0.0069201985   0.001504267   -4.8384261     -6.2263801      8.8072661      0.26060471     2.4769132     -4.0754418      58.552938      57.330457      58.770499      3              197284.73      1.2166144      9333.9901      20657.267     -7932.9644      416.85004     -2791.7877      25002.273     -19947.433      2263.0517      7.8          
      8000   299.64841      24832.673      18809.793      43642.466      316.31914      466.73088     -304.55627      786.78281      0.0015987214  -0.0082989458   0.0067050446   0.001554225   -0.0083335738   0.0066826658   0.0015530184   8.6552216     -9.1505048     -9.5889733      1.4567073     -9.4174702     -10.651678      58.474397      57.375652      58.681068      3              196875.37      1.219144       9333.0828      20692.856     -7843.1488      407.87408     -2769.1917      24961.531     -19950.33       2242.0091      8            
      8200   302.57013      24583.041      18993.198      43576.239     -187.30064      709.78048     -451.21543     -820.46696      0.0016386567  -0.0072678761   0.0068741471   0.0016015449  -0.0072944158   0.0068506279   0.0016002638   1.2878384      32.390427     -8.8180237     -1.6131023     -1.9825298      0.73419758     58.318119      57.403485      58.632111      3              196280.56      1.2228385      9206.2025      20581.841     -7829.8091      402.85651     -2812.0347      24986.649     -19952.665      2221.9494      8.2          
      8400   299.4981       24695.146      18800.358      43495.504      1501.7338      1743.9133      2202.5129      558.77531      0.0016785904  -0.0062728111   0.0067209361   0.0016493607  -0.0062925678   0.0066984513   0.001648002   -18.606799     -34.907032     -16.772973     -1.4694205      4.327066      -14.626871      58.211733      57.442818      58.641781      3              196089.08      1.2240326      9224.4025      20771.095     -8035.2192      410.74856     -2724.8802      24996.986     -19947.987      2324.1189      8.4          
      8600   295.68855      24854.745      18561.222      43415.967      64.470854      325.22437     -422.32629      290.51448      0.0017185225  -0.0052851848   0.0063614399   0.0016940312  -0.0052992008   0.0063412913   0.0016925979  -21.320728      10.971487     -6.6540215      12.258105      5.3730135     -4.6805359      58.219886      57.630033      58.782822      3              197228.94      1.2169585      9320.98        20740.779     -7812.1748      397.25482     -2788.4044      24946.458     -19950.147      2207.9064      8.6          
      8800   298.08327      24849.653      18711.545      43561.198      457.91543     -289.54405      874.27003      789.0203       0.001758453   -0.0047474488   0.0056856311   0.0017370785  -0.0047587538   0.0056695289   0.0017355715   19.481982      37.174652      7.329377       10.742861     -2.7831931     -5.8888038      58.231397      57.716381      58.908498      3              197985.9       1.2123058      9449.5861      20767.59      -7998.869       388.74567     -2800.5808      24993.258     -19950.076      2242.6011      8.8          
      9000   299.58767      24903.336      18805.981      43709.317      648.77025      1035.1522      1076.3204     -165.16187      0.0017983819  -0.004757666    0.0052215726   0.0017778501  -0.0047690198   0.0052079874   0.0017762716   6.6254183      6.0629369      38.56621       1.7750246     -7.637904      -20.112766      58.117193      57.659349      58.956698      3              197563.87      1.2148954      9438.5822      20770.018     -8000.8145      400.70035     -2765.3183      25003.206     -19943.038      2294.8496      9            
      9200   296.98608      24970.181      18642.671      43612.852      351.41558      871.5156      -489.45202      672.18315      0.0018383093  -0.0053516928   0.0049891024   0.0018191432  -0.0053660644   0.0049766981   0.0018174906  -31.853924      4.783096      -3.5687998      11.340657      3.3578727     -4.1634301      57.994461      57.50532       58.857865      3              196290.39      1.2227773      9263.6637      20812.38      -7723.0198      394.86247     -2812.1073      24983.58      -19949.178      2222.2948      9.2          
      9400   300.07419      24668.185      18836.521      43504.706      512.58396      708.74328      594.41956      234.58903      0.001878235   -0.0069518228   0.0046346831   0.0018551357  -0.0069760993   0.004623976    0.001853417   -30.151142     -10.131151     -7.5121441      3.4502078     -3.549832      -10.723852      58.092137      57.4128        58.814202      3              196159.02      1.2235962      9299.1639      20583.015     -7890.8019      385.85776     -2772.5397      25011.237     -19947.747      2290.9507      9.4          
      9600   295.77304      24729.895      18566.525      43296.42      -259.50794     -777.573        454.07938     -455.03019      0.0019181592  -0.0088889641   0.0052441274   0.0018820555  -0.0089287067   0.0052304248   0.0018802866  -3.4477526     -0.58794461     7.8176434     -3.1155877     -18.373807     -13.564728      58.302984      57.356378      58.7778        3              196555.78      1.2211263      9442.8388      20688.179     -7879.7902      416.41968     -2991.9173      24999.234     -19945.069      2062.2476      9.6          
      9800   294.68136      24940.516      18497.997      43438.513     -195.10198      671.81227      167.66965     -1424.7879      0.0019580817  -0.010279644    0.0063630112   0.0019033001  -0.010332844    0.0063428527   0.0019014911  -3.1652012     -9.173085      -26.158107      4.3029864      0.83761435    -4.4114732      58.475746      57.324652      58.780875      3              197039.47      1.2181287      9307.423       20939.923     -7868.0894      407.36955     -2895.4563      24997.477     -19948.131      2153.8903      9.8          
     10000   299.55754      24951.215      18804.089      43755.305     -891.91144     -937.79902     -1004.7422     -733.19304      0.0019980027  -0.011485439    0.0067612672   0.0019289321  -0.011551906    0.0067385123   0.0019270741   20.203035      17.746093      10.333691     -7.2502426      11.391541     -19.323386      58.56553       57.259359      58.847313      3              197340.03      1.2162734      9320.9781      20704.44      -7744.218       421.07925     -2773.6638      24966.3       -19943.7        2248.9364      10           
     10200   295.7318       24940.965      18563.936      43504.901      740.37         889.92027      755.45379      575.73594      0.002037922   -0.0113462      0.0066817887   0.0019698871  -0.01141106     0.0066595645   0.0019679494   14.894072     -18.416119     -7.0487609     -11.298742      0.71555091    -3.6479323      58.636117      57.191274      58.876772      3              197441.74      1.2156469      9440.5672      20679.749     -7902.2825      407.17833     -2739.4324      25000.89      -19945.705      2315.7531      10.2         
     10400   298.29105      24804.579      18724.588      43529.167     -101.94291     -1309.4226      779.49272      224.10111      0.0020778398  -0.011138893    0.0064296535   0.0020130323  -0.011201395    0.0064090714   0.0020110089   5.5282511      10.608312      12.238176      1.396112      -2.3126216      1.6036387      58.59874       57.177967      58.909765      3              197380.51      1.216024       9393.4783      20591.091     -7833.5596      397.81656     -2779.5493      24980.617     -19945.314      2255.7531      10.4         
     10600   299.64212      24873.466      18809.398      43682.864     -321.61151     -35.853955     -427.07114     -501.90944      0.002117756   -0.011664702    0.0066716551   0.0020466712  -0.011733269    0.0066494981   0.0020445796  -3.7291218     -17.293781     -9.8307726      5.2143022     -5.7126114     -6.1166715      58.52527       57.179341      58.91617       3              197159.22      1.2173889      9354.7831      20792.958     -7821.2747      389.40591     -2869.3273      24970.572     -19943.652      2157.5932      10.6         
     10800   296.70225      24928.619      18624.854      43553.474      371.08592     -402.20525      1121.0856      394.37743      0.0021576706  -0.011732682    0.0074676865   0.0020790757  -0.011802053    0.0074399414   0.0020769174  -4.5495922     -4.8529745      16.02523      -15.456479     -13.132152     -14.697408      58.43136       57.19573       58.858349      3              196706.03      1.2201936      9431.9563      20719.66      -7842.8459      407.52508     -2818.5639      24976.591     -19945.703      2212.3241      10.8         
     11000   298.52301      24791.317      18739.149      43530.466      148.47151      449.90437     -468.3093       463.81947      0.0021975835  -0.010766734    0.009482302    0.0021061916  -0.010825115    0.0094376272   0.0021039767  -18.388664     -1.1607032     -10.894772     -5.5791943     -0.93315677    -18.52653       58.405764      57.30792       58.818831      3              196873.27      1.2191571      9368.4337      20725.568     -7879.8641      403.96327     -2852.1374      24973.866     -19948.511      2173.2168      11           
     11200   298.25246      24804.3        18722.165      43526.465     -520.01805     -898.63414      494.14466     -1155.5647      0.0022374949  -0.0097388249   0.011342792    0.0021367642  -0.0097865574   0.011278945    0.0021344846  -5.848871       21.084227     -7.5621088      7.8219473      12.542562     -11.787312      58.44434       57.2985        58.849886      3              197074.91      1.2179097      9379.1136      20613.311     -7927.8609      409.06944     -2695.4532      24969.578     -19943.458      2330.6669      11.2         
     11400   299.47013      24865.601      18798.602      43664.203     -423.71485      140.25876      197.55423     -1608.9575      0.0022774047  -0.0089631397   0.011945163    0.0021778199  -0.0090035503   0.011874382    0.0021754519   6.3560374     -3.5290102     -4.1476491      1.8277547      17.015555     -5.166489       58.529321      57.318002      58.913579      3              197642.32      1.2144132      9277.1591      20574.913     -7631.4737      403.57695     -2763.1791      24950.512     -19945.907      2241.4254      11.4         
     11600   301.59757      24771.672      18932.148      43703.82      -362.15142     -162.523       -283.04631     -640.88494      0.002317313   -0.0078699643   0.01176058     0.00223165    -0.0079010959   0.011691961    0.0022291636   12.3067        9.1415819      28.303039     -0.25282552     1.0726623     -4.259226       58.60237       57.343796      58.93365       3              198045.49      1.2119409      9379.8248      20760.117     -7922.674       390.85665     -2904.5733      25016.054     -19947.933      2163.5477      11.6         
     11800   297.85281      24749.696      18697.078      43446.774     -144.52006      453.18104     -1110.9131      224.17192      0.0023572196  -0.0072616619   0.010554475    0.0022915915  -0.0072881561   0.010499165    0.0022889698  -2.4230017      7.6025015     -11.335318      16.892185      16.119776      10.21907       58.568353      57.229927      58.836223      3              197210.94      1.2170696      9432.3199      20622.57      -7960.8066      412.04683     -2793.7878      24981.9       -19944.546      2243.5658      11.8         
     12000   298.78044      24832.165      18755.308      43587.473     -445.33688     -549.70606     -623.40232     -162.90227      0.0023971246  -0.0075458993   0.0079245688   0.0023507028  -0.0075745137   0.0078933343   0.0023479442   4.590844      -10.235217     -0.2091635      8.7759234      5.6692208     -2.7699137      58.597032      57.100613      58.785592      3              196692.26      1.220279       9193.6887      20807.333     -7739.1783      411.39188     -2816.1031      24921.851     -19946.819      2158.9295      12           
     12200   297.8305       24657.249      18695.678      43352.927     -886.47262     -1742.6986     -1231.6596      314.94037      0.002437028   -0.008370486    0.0052762052   0.0024056177  -0.0084057153   0.0052623348   0.0024027288  -2.1042212     -4.9684023     -12.139336     -5.5486264     -10.596822     -13.543137      58.655745      57.06972       58.807666      3              196856.72      1.2192596      9310.8896      20633.221     -7863.4256      415.66007     -2895.6327      25004.802     -19948.265      2160.9039      12.2         
     12400   299.18313      24838.492      18780.586      43619.078      57.224381     -133.22175      137.25266      167.64222      0.0024769299  -0.0083606123   0.0035567697   0.002460077   -0.0083957582   0.0035504594   0.002457056   -4.6676819     -9.0387979     -3.8565471     -10.655812     -12.66242      -5.2012507      58.651639      56.990682      58.811146      3              196581.95      1.2209637      9460.298       20741.125     -7975.032       397.20019     -2832.9154      24997.597     -19949.781      2214.9001      12.4         
     12600   296.74499      24917.251      18627.537      43544.788     -897.51179     -1390.9511     -328.45878     -973.12554      0.0025168301  -0.0074130769   0.0033814907   0.0025025339  -0.0074406903   0.0033757863   0.0024994078   4.4793075     -19.915337     -11.482159     -5.8420367     -22.55998      -0.0083863953   58.660936      57.015322      58.86678       3              196884.2       1.2190894      9374.9016      20552.847     -7659.249       409.95066     -2807.2881      24990.548     -19944.46       2238.8005      12.6         
     12800   297.73626      24919.121      18689.762      43608.883     -465.83041     -315.87029      137.7963      -1219.4172      0.0025567288  -0.0064786727   0.0042369589   0.0025378746  -0.0064997504   0.0042280083   0.0025346596   29.401712     -9.7216011      29.768872      8.6291779     -2.1862446     -7.6978228      58.595976      57.120778      58.921979      3              197214.68      1.2170465      9427.856       20893.343     -7951.5622      411.57343     -2867.4813      24953.171     -19947.779      2137.9099      12.8         
     13000   297.30093      24746.72       18662.435      43409.155     -737.39496     -337.63589     -1215.8689     -658.6801       0.0025966258  -0.0051395144   0.0053796862   0.0025817526  -0.0051527671   0.0053652673   0.0025784256   0.85164266     11.7654        19.357576     -7.3585722     -1.642626       0.082561555    58.388613      57.307861      58.831923      3              196859.06      1.2192451      9324.2892      20660.782     -7825.9295      406.24842     -2826.3161      24959.703     -19952.058      2181.3294      13           
     13200   298.99431      24885.633      18768.733      43654.366     -4.6260688     -213.92967     -550.85885      750.91031      0.0026365213  -0.0047070553   0.0061594773   0.0026243236  -0.0047181684   0.0061405853   0.0026208861  -16.775916      2.6459214     -13.42641       23.279737      3.8468518     -11.96571       58.245208      57.419383      58.748179      3              196477.64      1.221612       9172.0919      20792.054     -7611.1589      414.0205      -2924.9397      24992.042     -19948.477      2118.6252      13.2         
     13400   295.20983      24863.262      18531.171      43394.432      789.50469      1707.1076      311.44994      349.95656      0.0026764152  -0.0058182301   0.0066332506   0.0026563969  -0.0058352219   0.0066113474   0.0026528749  -35.211736     -11.799877     -4.8617693      1.8120169      2.2492744     -10.975376      58.240835      57.501718      58.715562      3              196635.37      1.2206321      9330.6183      20594.002     -7711.3156      425.76422     -2790.0627      24963.121     -19948.865      2224.1925      13.4         
     13600   298.1376       24865.668      18714.955      43580.623      660.8185       743.57703      164.21874      1074.6597      0.0027163075  -0.0074253477   0.0060455944   0.0026894661  -0.0074530529   0.0060273931   0.002685856    4.6926175      11.411194     -6.8127484      17.494936      20.745547     -10.315426      58.315695      57.564332      58.733572      3              197162.97      1.2173657      9338.1463      20739.708     -7894.5312      416.67033     -2776.9149      24986.437     -19943.847      2265.6748      13.6         
     13800   300.36403      25086.452      18854.715      43941.166     -21.459339     -460.78375     -397.81218      794.21792      0.0027561982  -0.0099467904   0.0046812184   0.0027264221  -0.0099965902   0.0046702956   0.0027227121   7.2232627      10.183292     -2.3114414      2.3750483     -1.5626417     -10.98223       58.351928      57.565761      58.766238      3              197400.09      1.2159034      9380.2197      20850.538     -7832.8512      416.39251     -2768.7817      24985.429     -19944.495      2272.1529      13.8         
     14000   298.85668      24899.617      18760.094      43659.712     -1619.4989     -2094.3453     -1266.0534     -1498.098       0.0027960873  -0.012814534    0.0039399996   0.002761923   -0.012897348    0.0039322581   0.0027581159   3.9451071      17.113239      11.135333      10.131412     -5.4374619     -21.599501      58.396372      57.502367      58.780417      3              197380.51      1.216024       9298.9862      20644.27      -7672.2921      404.88793     -2836.5707      25006.051     -19945.715      2223.7655      14           
     14200   300.84389      24609.468      18884.837      43494.305      372.44564      115.12731     -2.9728518      1005.1825      0.0028359748  -0.015933622    0.0036068679   0.0027959839  -0.016061927    0.0036003787   0.0027920824   5.6238807      4.127442       7.997191       5.8121825     -0.63614481    -6.8258937      58.422662      57.451596      58.760058      3              197226.67      1.2169725      9289.3543      20745.981     -8035.2487      385.54163     -2822.3353      24996.235     -19950.061      2223.8388      14.2         
     14400   297.92834      24752.294      18701.82       43454.114     -177.43387     -117.78489     -566.28222      151.7655       0.0028758607  -0.018669205    0.003035742    0.0028395821  -0.018845675    0.0030311435   0.0028355581  -24.007403      6.7305395     -1.2759509     -1.0818142      1.445814      -8.5167799      58.485825      57.368108      58.704386      3              196966.19      1.2185819      9264.8779      20634.569     -7725.9108      393.81823     -2798.2927      24935.58      -19952.348      2184.9395      14.4         
     14600   299.58168      25045.622      18805.604      43851.226     -195.4498      -964.71274      159.44433      218.919        0.0029157451  -0.021034298    0.0024297271   0.002884623   -0.021258671    0.0024267801   0.0028804705   3.5222935      14.108944     -14.531558      0.89268015    -6.5736913     -8.2906732      58.574237      57.262104      58.716771      3              196940.99      1.2187379      9467.3698      20771.334     -7799.5993      399.11586     -2816.3186      24972.101     -19948.381      2207.4018      14.6         
     14800   299.65256      25015.493      18810.054      43825.547      167.9643      -136.96697      499.99885      140.86103      0.0029556278  -0.022699902    0.0031036212   0.0029033901  -0.022961511    0.0030988149   0.0028991834  -11.755108     -11.648649     -12.203379     -5.023413      -12.419984     -2.8927511      58.702615      57.169002      58.756104      3              197183.72      1.2172376      9405.3254      20773.754     -7796.502       415.7832      -2820.7668      24985.624     -19947.725      2217.1325      14.8         
     15000   295.82018      25020.133      18569.484      43589.617      23.305523     -100.58571      581.53681     -411.03452      0.002995509   -0.022553607    0.0046610787   0.0029060176  -0.02281183     0.0046502495   0.0029018033   15.866705     -17.819303      10.141156     -25.036981     -5.6913808     -4.8466962      58.760222      57.159836      58.812335      3              197534.44      1.2150764      9288.437       20861.199     -7794.232       400.44042     -2827.0365      25039.706     -19948.381      2264.2885      15           
     15200   298.65563      24726.213      18747.473      43473.686      233.32223      554.26601      584.89425     -439.19357      0.0030353885  -0.020998526    0.0059576403   0.0029267843  -0.02122213     0.0059399638   0.0029225096   5.1383172      7.5160323      11.611797      2.8765292      0.549935      -9.9184064      58.739514      57.174293      58.802447      3              197481.56      1.2154018      9324.6018      20634.4       -7835.4323      388.06563     -2847.4671      25011.456     -19949.411      2214.578       15.2         
     15400   298.07832      24876.345      18711.234      43587.579     -984.80726     -1085.8461     -1241.9418     -626.63389      0.0030752665  -0.019362182    0.0072002241   0.00295502    -0.019552084    0.0071744263   0.0029506625   15.145462     -5.1151567     -6.8327059     -14.438602      0.37078993     2.147096       58.659169      57.178123      58.758488      3              197077.21      1.2178955      9303.2457      20707.29      -7720.5607      401.56838     -2849.5921      24983.924     -19949.53       2184.8014      15.4         
     15600   297.79323      24608.625      18693.339      43301.964      418.14827      970.18872     -45.696244      329.95232      0.0031151429  -0.016780028    0.0084168918   0.0029932256  -0.016922408    0.0083816672   0.0029887548  -0.76308128    -9.4239936     -18.588121     -8.8805473     -8.8195334     -19.934492      58.54348       57.227         58.763599      3              196873.79      1.2191539      9267.4258      20566.6       -7897.9924      420.94833     -2768.4657      24972.435     -19952.326      2251.6435      15.6         
     15800   302.64556      24808.865      18997.933      43806.798      222.14678      555.90546      653.38433     -542.84946      0.0031550177  -0.014218869    0.0097321562   0.0030348     -0.014320926    0.0096851038   0.0030302043  -8.637083       3.7096004      16.65472       5.1586394      1.8467279     -3.8246437      58.468804      57.282453      58.792353      3              196909.49      1.2189328      9406.1479      20614.228     -7827.0557      395.12718     -2852.7749      25022.507     -19949.315      2220.4176      15.8         
     16000   299.29915      24938.543      18787.869      43726.412      347.21537      923.38054     -143.99057      262.25612      0.0031948909  -0.012668121    0.011277167    0.0030694904  -0.012749046    0.011214053    0.0030647891  -12.190828     -5.9360436     -15.860924      9.2988851      0.59679923    -0.73345538     58.412829      57.343542      58.810851      3              196992.74      1.2184177      9254.1961      20791.853     -7758.7926      408.03647     -2775.138       24967.121     -19948.734      2243.2495      16           
     16200   297.58209      24917.711      18680.085      43597.795     -193.39026     -205.49833      44.108054     -418.7805       0.0032347625  -0.012218061    0.011741473    0.0031045169  -0.012293315    0.011673077    0.0030997078  -2.2484419     -0.9952281      7.2447702      8.6987055      13.1527       -7.2044581      58.443938      57.416622      58.892891      3              197624.13      1.2145249      9266.3664      20694.299     -7642.308       400.70884     -2802.1034      24949.692     -19948.945      2198.6442      16.2         
     16400   297.72034      24753.646      18688.763      43442.409      554.51093      1179.5427      780.36042     -296.37032      0.0032746325  -0.011587259    0.011248607    0.0031597016  -0.011654914    0.011185812    0.0031547202   0.63736108     18.180675      19.812932     -7.1608654      12.43602       2.3053375      58.478907      57.438162      58.858398      3              197700.71      1.2140545      9296.3857      20669.016     -7871.2258      393.10177     -2749.1384      24963.964     -19948.457      2266.3686      16.4         
     16600   300.03041      24997.39       18833.773      43831.162      113.149        259.53728     -390.83811      470.74782      0.003314501   -0.010906763    0.0095840232   0.0032312399  -0.010966678    0.0095383878   0.0032260306  -2.302192       6.4874275      2.2079698     -2.7201548      12.626515     -18.29387       58.494983      57.363157      58.760911      3              197169.71      1.2173241      9567.4425      20794.183     -8051.8125      414.31152     -2797.7608      25015.959     -19944.932      2273.2653      16.6         
     16800   300.4044       24853.906      18857.249      43711.155     -288.67562     -370.42755     -1146.5895      650.99017      0.0033543678  -0.010226292    0.0070431794   0.0033077921  -0.01027894     0.0070184921   0.0033023334   6.080212      -13.594195     -13.398219      11.122102     -10.108724     -6.8725262      58.539242      57.340855      58.695479      3              197022.54      1.2182334      9417.8815      20591.629     -7747.6774      407.32101     -2820.2969      24953.196     -19948.148      2184.7513      16.8         
     17000   297.91159      24774.282      18700.768      43475.051     -160.96466      308.74577      505.59099     -1297.2307      0.0033942331  -0.0097256088   0.0054370714   0.003368201   -0.0097732115   0.0054223439   0.0033625413   2.4779078      3.3438052      4.919626      -2.1962309     -0.14724529    -13.268201      58.54791       57.296133      58.678735      3              196841.86      1.2193516      9342.282       20645.433     -7942.6809      401.56146     -2760.9619      25040.98      -19952.332      2327.6865      17           
     17200   299.39952      24765.904      18794.17       43560.074     -556.86191     -1355.0819     -539.05044      223.54667      0.0034340967  -0.009451197    0.0038493135   0.0034263759  -0.009496143    0.0038419238   0.0034205193  -16.58373      -14.043634     -20.002802      5.5665448     -22.472796      2.799084       58.602851      57.272666      58.6551        3              196866.55      1.2191987      9283.0909      20657.233     -7784.7571      399.87172     -2875.5696      25036.104     -19950.069      2210.4648      17.2         
     17400   295.18341      24660.437      18529.513      43189.949      50.915013     -285.04381      746.03483     -308.24598      0.0034739588  -0.008760451    0.0028276472   0.0034783495  -0.0087990493   0.002823657    0.003472314    21.762174      21.399146      15.982776     -4.9640683      8.9944394     -6.3629096      58.619679      57.263628      58.653989      3              196888.27      1.2190642      9418.6245      20721.702     -8092.5026      415.66266     -2853.0802      25000.598     -19950.568      2196.9502      17.4         
     17600   298.89355      24770.783      18762.409      43533.192     -526.85446      120.09412     -611.21872     -1089.4388      0.0035138193  -0.0083629489   0.0010507243   0.0035337991  -0.0083981145   0.0010501727   0.0035275699  -0.1654469     -26.717134     -27.107352      8.65603        2.0316125     -9.3176627      58.600228      57.205201      58.667635      3              196667.86      1.2204304      9385.1681      20711.511     -7918.0795      401.55183     -2866.6537      25007.208     -19949.923      2190.6318      17.6         
     17800   297.63877      25092.91       18683.643      43776.553     -645.86583     -127.83989     -1482.495      -327.26256      0.0035536782  -0.0080370862  -0.0012421748   0.0035865805  -0.0080695577  -0.0012429469   0.003580164   -1.0253979      13.175706      8.8912034     -5.0145034     -22.323375     -5.5515183      58.531542      57.209543      58.770227      3              196795.79      1.2196371      9338.4698      20717.416     -7642.3442      408.80395     -2718.4303      24937.384     -19948.389      2270.5652      17.8         
     18000   298.39394      24806.47       18731.047      43537.517      417.06211      85.191548      523.10738      642.8874       0.0035935355  -0.0072272706  -0.0013548067   0.0036209599  -0.0072535138  -0.0013557252   0.00361442    -22.856099     -13.816636      0.25552697     2.1504965     -14.723826     -15.320142      58.550324      57.21489       58.861961      3              197184.65      1.2172319      9304.1228      20764.485     -7890.6982      405.55868     -2829.6005      25001.777     -19949.174      2223.0021      18           
     18200   297.99035      24840.44       18705.712      43546.153      9.0076419      193.401        29.927891     -196.30596      0.0036333912  -0.0058992095  -0.00020077833  0.0036495536  -0.0059166786  -0.00020079848  0.0036429101   14.265705      7.2315758      32.042823     -10.608856     -17.583522      3.4090138      58.600425      57.259249      58.909687      3              197666.52      1.2142645      9265.1987      20808.543     -7829.0591      405.77832     -2878.1261      25010.859     -19942.754      2189.9795      18.2         
     18400   295.76858      25038.33       18566.245      43604.576     -492.86276     -919.99112     -429.74275     -128.8544       0.0036732454  -0.0046927845   0.0024331313   0.003683304   -0.0047038302   0.002430176    0.0036765373   17.981701     -9.5090807      5.5209802      18.362349     -6.6868897     -15.154944      58.573576      57.308589      58.810054      3              197411.77      1.2158315      9221.4224      20721.662     -7533.4993      394.13867     -2809.5         24992.251     -19948.144      2234.6066      18.4         
     18600   299.65385      25101.025      18810.135      43911.16       463.1028      -95.927473      119.79324      1365.4426      0.0037130979  -0.0048249705   0.0057428377   0.0037161526  -0.0048366482   0.0057264104   0.0037092647   11.739057      14.347574     -4.3602535      17.25825       6.8535827     -16.944092      58.449051      57.36704       58.668166      3              196717.24      1.2201241      9389.1782      20970.953     -7912.328       428.77288     -2842.2977      25014.17      -19947.424      2224.4482      18.6         
     18800   299.11809      24878.316      18776.503      43654.82       545.58112      1552.317       307.71923     -223.29286      0.0037529489  -0.0057393353   0.0082871373   0.0037367088  -0.0057558686   0.0082529876   0.0037297446  -34.213804     -17.034186     -28.692188     -1.5014149      6.45695        0.90923764     58.393536      57.426364      58.664459      3              196721.2       1.2200995      9383.6853      20697.79      -7909.6387      392.32613     -2787.0555      25050.906     -19949.696      2314.154       18.8         
     19000   297.20801      24794.692      18656.603      43451.295      164.3575      -5.1973003     -198.03475      696.30456      0.0037927982  -0.0068699141   0.010396522    0.0037478     -0.0068936206   0.01034285     0.0037407945  -7.8654438      21.311853     -16.577538      9.5132257     -9.0483074     -10.128493      58.454048      57.448016      58.7444        3              197267.75      1.2167191      9397.7562      20663.642     -7905.6617      401.43232     -2766.9795      24955.094     -19950.591      2237.5231      19           
     19200   296.42997      24941.616      18607.763      43549.379      261.19079      153.63916      881.38236     -251.44913      0.003832646   -0.0083631119   0.012398207    0.0037493661  -0.008398279    0.012321979    0.0037423548   27.78004       20.088176      13.607051      2.8224483      0.2325134     -9.6757247      58.457251      57.332894      58.839556      3              197202.15      1.2171239      9360.191       20685.681     -7765.8461      401.14911     -2805.9129      25016.393     -19950.039      2260.4407      19.2         
     19400   294.98678      24818.291      18517.17       43335.461     -326.12788     -804.40156     -755.20878      581.22671      0.0038724922  -0.0097306963   0.012884407    0.0037632176  -0.0097783489   0.012802109    0.0037561544  -8.1446676     -0.78678993    -3.6579155      0.49109808     23.059285      9.5224431      58.441533      57.212161      58.908053      3              196962.99      1.2186017      9359.7917      20759.332     -7935.3848      392.51174     -2802.0625      24985.923     -19941.82       2242.0403      19.4         
     19600   301.20426      24970.104      18907.459      43877.563     -207.97887     -602.15134      534.43557     -556.22084      0.0039123368  -0.010813411    0.011905453    0.0037989989  -0.010872301    0.011835141    0.0037918009  -4.172323      -2.3290371      9.1759122      0.26908004     6.0372857     -8.2241168      58.431974      57.149538      58.922249      3              196762.62      1.2198427      9398.716       20808.865     -7864.0641      397.88812     -2830.6304      25008.395     -19949.065      2228.6993      19.6         
     19800   299.15258      24993.213      18778.669      43771.882      324.66446      253.82009      737.67244     -17.499149      0.0039521798  -0.012114154    0.010748068    0.0038358428  -0.012188128    0.010690718    0.0038285047  -8.5977039     -20.698018     -11.71823       5.4394376      5.3953567      3.0454672      58.488223      57.163296      58.948432      3              197086.98      1.2178351      9446.8427      20862.867     -7942.2805      411.13797     -2859.6173      25021.073     -19946.809      2214.6462      19.8         
     20000   297.43082      24905.123      18670.589      43575.712      143.19847      835.60612     -272.73383     -133.27688      0.0039920213  -0.013508919    0.0093082058   0.0038752531  -0.013600995    0.0092651514   0.0038677637  -0.2823892     -17.670806      7.7160239     -2.5619115      3.4415982     -16.185031      58.542189      57.26902       59.023521      3              197885.43      1.2129212      9382.5964      20805.988     -7959.8737      395.88016     -2768.5496      24998.216     -19949.135      2280.5319      20           
     20200   297.56517      24876.476      18679.022      43555.498      523.39402      1730.1635     -400.60945      240.62801      0.0040318611  -0.014451588    0.0077589026   0.0039337741  -0.014557029    0.0077289571   0.0039260571   25.077276      13.647277      34.283853      1.6713307     -4.2484506     -0.79555887     58.535836      57.378853      58.952087      3              198003.5       1.2121979      9349.3209      20819.759     -7943.9461      392.96777     -2765.9222      24970.194     -19945.898      2258.3742      20.2         
     20400   295.00142      24947.696      18518.089      43465.785     -127.21196      497.27143     -752.45959     -126.44772      0.0040716994  -0.016013278    0.0072558353   0.0039766111  -0.016142876    0.0072296383   0.0039687253  -0.14863746     9.3803348     -19.146171      0.5138521     -18.542582     -12.720887      58.453571      57.382774      58.852394      3              197404.35      1.2158772      9365.2385      20751.705     -7795.0172      396.73575     -2774.4826      24948.274     -19944.757      2229.0343      20.4         
     20600   295.70252      24652.963      18562.099      43215.061      728.02388      793.48251     -71.056512      1461.6457      0.004111536   -0.016821706    0.007967122    0.0040005299  -0.016964798    0.0079355521   0.0039925491   2.2341516     -10.232475     -9.6848239     -18.168669     -4.5100772     -17.335226      58.340073      57.415552      58.828191      3              197052.53      1.218048       9375.6979      20635.065     -8129.78        396.51228     -2650.8316      24973.185     -19946.885      2375.4678      20.6         
     20800   296.74438      24655.602      18627.499      43283.101      1196.9627      468.82533      1982.4738      1139.5889      0.0041513711  -0.015915466    0.0084280137   0.0040391216  -0.016043478    0.0083926963   0.0040309862  -16.286491      2.9306497     -25.412336     -13.979986      0.76869219    -18.794847      58.293039      57.442429      58.849048      3              197055.67      1.2180286      9414.0839      20673.378     -8170.6928      399.26815     -2698.7302      24986.632     -19948.336      2339.5651      20.8         
     21000   297.9972       25207.4        18706.142      43913.542     -210.70727     -273.71911      61.479907     -419.88261      0.0041912046  -0.0129839      0.0092097699   0.0040851696  -0.013068927    0.0091676186   0.004076848   -2.6997531      0.089498227   -0.75749849    -15.191373      2.7707138     -16.359692      58.293558      57.537367      58.971979      3              197795.43      1.2134731      9250.1417      20949.296     -7670.0601      404.35652     -2801.5149      25022.868     -19947.687      2273.6662      21           
     21200   296.9972       24963.48       18643.369      43606.849      51.259044     -128.93005     -343.51096      626.21814      0.0042310365  -0.0097722422   0.0098340577   0.0041431722  -0.0098203039   0.009786018    0.0041346129   27.342045      24.792106      26.345337      8.3975752      3.1333167     -7.4722882      58.216094      57.550287      59.050551      3              197840.18      1.2131986      9393.1788      20788.105     -7992.3518      394.10624     -2693.8634      25022.719     -19948.414      2380.4416      21.2         
     21400   298.71832      24871.938      18751.409      43623.347     -833.69331     -876.17443     -981.56172     -643.34379      0.0042708669  -0.0075686517   0.010925278    0.0041958347  -0.0075974393   0.010866028    0.0041870567  -25.590328     -8.0688613     -2.2687843      7.1803657     -11.224289     -4.798899       58.169759      57.498843      59.061234      3              197541.75      1.2150315      9341.1479      20675.952     -7772.0137      408.67232     -2830.5016      24999.305     -19950.624      2218.1799      21.4         
     21600   297.60463      24885.019      18681.499      43566.518     -238.0454      -181.24883     -872.00618      339.11883      0.0043106956  -0.0064586819   0.011076564    0.0042477154  -0.0064796295   0.011015669    0.0042387193  -10.510026      0.48392137     18.534441      2.0209911      16.016311      4.3393846      58.194455      57.460526      59.051398      3              197461.03      1.2155282      9383.6738      20744.584     -7873.6354      399.52219     -2806.4224      24985.093     -19947.796      2230.8743      21.6         
     21800   293.94309      24880.14       18451.654      43331.794     -259.03529     -1599.6998      916.51549     -93.921598      0.0043505227  -0.0051029028   0.01069718     0.0043119332  -0.0051159671   0.01064037     0.0043026635   3.1928783     -0.037132731   -1.8058267     -0.35765739     5.8773433     -9.8100647      58.249936      57.422407      58.953752      3              197191.55      1.2171893      9272.0595      20907.233     -7899.3513      391.82394     -2845.2876      25003.232     -19949.57       2208.3747      21.8         
     22000   299.58173      24927.189      18805.608      43732.797     -632.25357     -1081.2112     -9.2309546     -806.3185       0.0043903483  -0.0034152039   0.009829422    0.0043768858  -0.003421049    0.0097814274   0.0043673351  -9.2353626     -6.6041504      1.7052365     -3.9413678     -1.6333421     -10.828333      58.3401        57.446155      58.902882      3              197407.97      1.2158549      9288.197       20718.325     -7763.7666      404.56668     -2836.6116      25068.538     -19952.059      2279.8665      22           
     22200   299.95867      24828.879      18829.269      43658.148     -59.110857     -921.79633      1116.8814     -372.41764      0.0044301723  -0.0024303014   0.0089927139   0.00443218    -0.0024332594   0.0089525203   0.0044223868   0.62286424     12.887469     -5.5004587      15.583797     -2.6479744     -9.5871468      58.474959      57.440671      58.857422      3              197692.71      1.2141036      9436.5267      20656.443     -7936.6252      398.32566     -2778.029       25001.289     -19949.051      2274.2093      22.2         
     22400   296.84903      25053.97       18634.068      43688.038     -302.32254      314.37876     -70.254728     -1151.0917      0.0044699947  -0.0020095137   0.0089508007   0.004479268   -0.0020115355   0.0089109797   0.004469266    1.5591763      2.4406722     -2.2370326      8.1114148     -9.2318305     -9.8071138      58.588708      57.382276      58.817007      3              197740.04      1.2138131      9349.2035      20734.799     -7754.5235      401.48036     -2765.0489      25035.328     -19947.268      2323.011       22.4         
     22600   296.79918      24882.331      18630.939      43513.27      -938.52778     -1174.998      -691.56664     -949.01865      0.0045098155  -0.0020419647   0.0094992968   0.0045217333  -0.0020440523   0.0094544622   0.004511541    13.616564     -2.8830553     -19.903297      4.1068717     -5.832372      -7.1970542      58.657289      57.266331      58.768495      3              197408.53      1.2158514      9348.5693      20738.446     -7804.1754      421.52235     -2855.4187      24980.391     -19947.004      2177.9688      22.6         
     22800   298.23468      24923.96       18721.049      43645.009      536.71299      650.05607      1593.4079     -633.32505      0.0045496347  -0.0028183667   0.0097699901   0.0045539515  -0.0028223458   0.0097225723   0.0045436136   23.439623     -10.635224      5.381605       2.746199       13.308316     -0.2533049      58.635141      57.156399      58.766052      3              196946.99      1.2187007      9375.888       20659.27      -7801.0534      414.12387     -2792.2057      25013.91      -19945.972      2275.7314      22.8         
     23000   297.56877      24898.051      18679.249      43577.299      45.450696      958.77966      200.46928     -1022.8969      0.0045894523  -0.0046730396   0.010141746    0.0045646227  -0.0046839924   0.010090664    0.0045542364   3.8127519     -11.696223     -17.335069      8.556534      -10.010831      2.9986761      58.559353      57.112217      58.888508      3              196949.94      1.2186825      9374.6621      20684.785     -7870.433       414.84057     -2756.8633      24996.491     -19945.431      2294.1958      23           
     23200   297.73759      24910.077      18689.846      43599.923     -465.57693     -1481.1545     -114.03457      198.4583       0.0046292684  -0.0072669621   0.011273746    0.0045518789  -0.0072934951   0.011210671    0.0045415505  -7.4056016     -9.8240586     -1.3978722     -4.4581239     -8.0265736      1.1568757      58.500286      57.152935      59.119644      3              197664.34      1.2142779      9365.5609      20849.307     -7891.4266      405.9264      -2920.088       25047.086     -19946.288      2180.7099      23.2         
     23400   298.79982      24948.753      18756.525      43705.278     -95.757003     -399.03817      452.99114     -341.22398      0.0046690828  -0.0089144185   0.01321428     0.0045471769  -0.0089543896   0.013127733    0.0045368697  -3.0509814     -1.0347017      20.203521     -16.600466     -2.0306833     -4.570656       58.386611      57.1669        59.228699      3              197692.46      1.2141052      9236.1343      20683.914     -7777.5387      416.74661     -2670.7116      25001.632     -19941.423      2389.497       23.4         
     23600   298.48521      24656.31       18736.776      43393.086      454.10607      320.40138      387.03989      654.87695      0.0047088957  -0.0097277104   0.014637768    0.0045598648  -0.0097753337   0.01453167     0.0045495001  -28.321067      7.0659451      19.542989     -2.8172532     -1.2065169      1.7870815      58.40483       57.160024      59.259708      3              197833.88      1.2132373      9357.5623      20796.243     -8126.9252      396.58279     -2849.3371      25030.305     -19948.121      2232.8468      23.6         
     23800   294.91983      24967.666      18512.967      43480.633     -1337.4042     -877.31478     -445.00815     -2689.8897      0.004748707   -0.010378996    0.015405387    0.0045925054  -0.010433234    0.015287928    0.004581992    23.406126     -8.2397695      21.188656      8.863941       13.972831     -4.3776278      58.400154      57.145344      59.130321      3              197335.43      1.2163018      9336.5655      20721.436     -7684.0833      390.32686     -2854.3669      25003.615     -19945.827      2203.4213      23.8         
     24000   298.12295      24808.9        18714.036      43522.936     -301.98163     -373.74464      581.64544     -1113.8457      0.0047885167  -0.011580858    0.015294639    0.0046273764  -0.011648438    0.015178855    0.004616703   -6.8279839     -4.2089651      9.1341176     -1.6876849      7.5445332      1.8420527      58.377698      57.20907       58.979902      3              196977.17      1.218514       9233.332       20792.398     -7802.7238      412.49991     -2881.0565      24999.768     -19945.319      2173.3931      24           
     24200   299.90902      24733.143      18826.153      43559.296      560.89947      1495.4825     -795.84869      983.06462      0.0048283249  -0.012013526    0.014424675    0.0046808196  -0.012086271    0.014321629    0.0046698986  -10.025877     -8.5733091     -30.475183     -11.404837      11.468463     -7.3846283      58.390461      57.30139       58.864041      3              196950.52      1.2186789      9230.9004      20751.599     -7956.796       413.04238     -2789.9581      25033.682     -19949.326      2294.3977      24.2         
     24400   299.02962      24805.19       18770.95       43576.14      -324.19713     -383.85869     -486.65189     -102.08081      0.0048681314  -0.01180138     0.012742703    0.0047393448  -0.011871569    0.012662198    0.0047281495   13.575281      11.917348     -22.312771     -4.8437433      0.46805721     6.0727947      58.401249      57.351059      58.919685      3              197344.03      1.2162488      9247.5226      20664.302     -7754.3148      400.07719     -2862.1971      25057.477     -19947.677      2247.6032      24.4         
     24600   296.02924      24878.572      18582.608      43461.18       490.83153      1378.3683     -440.56566      534.69197      0.0049079364  -0.011413752    0.010847328    0.0048015216  -0.011479389    0.010788917    0.004790031    2.8938909      21.376439      11.877756     -5.9027446      6.4161743     -6.0930107      58.359134      57.34641       58.974777      3              197370.11      1.2160881      9333.0972      20749.001     -7877.5365      383.13748     -2772.6906      25012.376     -19948.812      2290.8727      24.6         
     24800   296.60464      24812.244      18618.727      43430.971      410.01302      616.85464     -142.70133      755.88575      0.0049477397  -0.010340565    0.0070728318   0.004891779   -0.0103944      0.0070479366   0.0048798532  -5.8510426      5.3254099      2.0587021     -0.85602482     12.565466     -0.38474605     58.32347       57.224186      58.982855      3              196856.05      1.2192637      9346.3426      20742.332     -7872.7247      417.57866     -2856.4666      24982.733     -19947.551      2178.715       24.8         
     25000   298.49174      24856.534      18737.186      43593.72       1190.566       878.60649      1352.2668      1340.8249      0.0049875415  -0.0092322962   0.0039780366   0.0049675148  -0.0092751779   0.0039701451   0.0049552174  -9.1996082     -24.704291      3.5395737     -5.6361069     -20.726051     -3.2397235      58.325461      57.138049      58.992908      3              196599.94      1.220852       9422.8698      20859.669     -8110.9783      420.70886     -2767.69        24977.256     -19945.301      2264.2648      25           
     25200   299.95962      24775.238      18829.329      43604.566      276.09692      307.2934      -187.3563       708.35368      0.0050273417  -0.0079128542   0.00254002     0.0050220788  -0.0079443269   0.0025367996   0.0050095102  -14.085587     -7.0179222     -0.55065889    -3.026528      -3.7741705     -24.34799       58.339405      57.17359       59.018383      3              196854.24      1.2192749      9177.0526      20755.843     -7793.7582      388.76676     -2822.5829      25014.901     -19944.985      2247.3336      25.2         
     25400   297.65884      24899.53       18684.902      43584.432     -809.04823     -1157.1418     -1000.3895     -269.61342      0.0050671403  -0.0067137824   0.0021751901   0.0050682009  -0.0067364212   0.0021728278   0.0050554008   3.8416205      11.763014      18.636312      6.162463      -12.244758     -17.829308      58.456268      57.203144      59.011864      3              197328.73      1.2163431      9366.133       20806.981     -7827.6855      392.82665     -2878.4693      24984.423     -19944.68       2161.2746      25.4         
     25600   297.04435      24681.996      18646.329      43328.325      373.69206     -256.43548      90.755243      1286.7564      0.0051069374  -0.0058493682   0.0030054307   0.0051156714  -0.0058665427   0.0030009234   0.0051026308  -8.0149713     -7.8879001     -8.1178645     -0.55142215    -14.832488     -2.9343242      58.516595      57.189838      58.892205      3              197085.98      1.2178413      9363.6183      20751.621     -8092.8378      394.8629      -2739.2355      24952.546     -19948.58       2264.7311      25.6         
     25800   300.68551      24917.712      18874.895      43792.607     -631.15693     -1062.7328     -449.52847     -381.20952      0.0051467328  -0.0060695602   0.0040347688   0.0051490332  -0.0060880549   0.0040266509   0.0051358222   0.67978133    -3.9005633     -18.700921      13.084934      7.9521485     -10.705728      58.642655      57.2227        58.889998      3              197616.64      1.214571       9256.9712      20752.099     -7743.2285      415.25655     -2806.032       24988.145     -19945.499      2236.6135      25.8         
     26000   297.30997      24922.773      18663.003      43585.776     -318.06689     -646.83273      291.00948     -598.3774       0.0051865267  -0.0062395926   0.0051948545   0.0051771488  -0.0062591402   0.0051814078   0.0051637935   15.560195     -7.0330839     -3.2199681     -5.1539862     -10.713203     -1.5800925      58.682916      57.265023      58.935562      3              198051.69      1.211903       9423.3156      20605.661     -7776.8451      411.03531     -2789.0086      24996.117     -19947.502      2259.6062      26           
     26200   299.93553      24828.035      18827.817      43655.852     -682.59679     -1321.6346     -806.47525      80.319495      0.005226319   -0.0060278435   0.0069785414   0.0052100546  -0.0060460843   0.0069543041   0.0051965292   22.825806      26.868421      28.458324     -0.61146973    -1.8057233     -3.0666305      58.6048        57.268092      58.907118      3              197703.19      1.2140393      9254.5927      20655.851     -7742.0818      394.19729     -2836.6982      25050.844     -19948.669      2265.4765      26.2         
     26400   297.99277      24606.013      18705.864      43311.877      714.99158      529.68157      595.47931      1019.8138      0.0052661097  -0.0061375054   0.010032338    0.0052363581  -0.0061564173   0.0099823478   0.0052226961  -15.556904     -23.063563     -16.124334     -0.046263572   -7.5238154     -7.3692848      58.480738      57.233492      58.841958      3              196947.38      1.2186983      9267.0551      20759.276     -8071.4192      389.79248     -2737.4014      24945.88      -19947.17       2261.309       26.4         
     26600   299.58302      24750.749      18805.689      43556.438      418.21535      27.431555      1427.2563     -200.04179      0.0053058988  -0.0056737246   0.01391086     0.0052529522  -0.0056898814   0.013814992    0.0052392035  -25.324981      7.3150016     -16.796997     -5.4454589      8.9231038     -13.448913      58.502509      57.290774      58.907691      3              197438.2       1.2156687      9345.7271      20695.195     -7820.4285      392.56981     -2856.8402      24944.082     -19949.556      2137.6857      26.6         
     26800   300.37163      25023.34       18855.192      43878.532     -432.3163      -310.84295     -216.23655     -769.86942      0.0053456863  -0.0054039727   0.016876224    0.0052777343  -0.005418627    0.016735402    0.0052638559   8.1258502      5.3538336      21.70624       6.1903264      6.5780156     -16.938557      58.541544      57.303663      58.938397      3              197717.39      1.2139521      9283.1625      20846.17      -7713.6787      378.7016      -2814.6011      24990.011     -19946.425      2228.9848      26.8         
     27000   297.91692      24895.371      18701.103      43596.474      284.51712      237.35511      188.53959      427.65665      0.0053854723  -0.0058810569   0.018618401    0.0053044064  -0.0058984184   0.0184472      0.0052903876   20.258797      11.638514      15.188022      12.321785      16.210497     -7.2247412      58.503892      57.282091      58.883056      3              197330.38      1.2163329      9314.9027      20766.093     -7797.3361      395.53748     -2823.7912      24988.392     -19948.426      2216.1743      27           
     27200   298.19823      24913.053      18718.761      43631.814     -622.59506     -1257.2637      517.42296     -1127.9445      0.0054252566  -0.0072947661   0.019580719    0.0053246417  -0.007321503    0.019391483    0.0053105159  -4.5903606     -7.9575472      2.0421441      5.0334501      12.892313     -13.280949      58.401459      57.239667      58.736346      3              196348.56      1.2224151      9290.9542      20720.381     -7607.1455      388.41693     -2896.0266      24958.44      -19941.967      2120.4463      27.2         
     27400   298.23205      24716.732      18720.885      43437.616      81.792149     -222.10205     -151.86595      619.34445      0.0054650394  -0.0089434968   0.019664931    0.0053392917  -0.0089837299   0.019474075    0.0053250882  -27.456149     -20.75789      -27.145772      2.29347        3.7033513     -1.2776795      58.40713       57.292284      58.655774      3              196278.52      1.2228513      9282.5771      20800.865     -7963.807       416.71029     -2845.0778      24968.476     -19943.012      2180.3864      27.4         
     27600   299.00165      24769.193      18769.194      43538.388      448.41722      839.20653      502.51576      3.5293792      0.0055048206  -0.011204721    0.019347257    0.0053319547  -0.011267967    0.019162478    0.0053177902  -14.156092      9.9507679     -20.501723     -1.5812784      9.4786019     -17.886434      58.52163       57.340535      58.725512      3              197062.95      1.2179836      9341.5707      20795.918     -7901.747       392.86835     -2901.9052      24989.115     -19946.627      2140.5831      27.6         
[...]
    744000   297.32752      24903.279      18664.104      43567.383     -593.87572     -1050.5296     -710.99222     -20.105318      0.13871792    -0.036919334   -0.0027577462   0.14721567    -0.037618105   -0.0027615557   0.13733785     7.7082666     -2.6219003      15.326344      1.5273216     -10.328564      71.508522      58.552682      57.309054      59.250631      3              198821.35      1.2072116      9366.1053      20768.427     -7932.4753      404.5758      -2720.5432      24964.05      -19946.86       2296.646       744          
    744200   298.60476      24777.527      18744.281      43521.808      472.39008      14.392272     -27.640428      1430.4184      0.13875274    -0.038302165   -0.002982167    0.14744691    -0.039054979   -0.0029866225   0.1375394      4.7348858      1.2688187     -4.5719433     -12.642713      4.1160987      65.982694      58.520248      57.283334      59.174111      3              198365.52      1.2099857      9428.274       20798.796     -8176.8142      407.60536     -2726.5851      24993.372     -19947.121      2319.6657      744.2        
    744400   298.03313      25064.962      18708.397      43773.359     -813.41922     -1232.8505     -609.93856     -597.46859      0.13878755    -0.038609311   -0.0023735985   0.14766868    -0.039374408   -0.00237642     0.13773265    -13.291517     -25.297238     -10.278402     -17.970604     -4.4481401      78.843419      58.532856      57.298573      59.08986       3              198178.48      1.2111277      9090.0895      20894.043     -7601.9379      415.60687     -2798.591       25013.51      -19947.759      2267.16        744.4        
    744600   297.54708      24862.764      18677.887      43540.651     -422.38601      612.89322     -1054.495      -825.55623      0.13882237    -0.037507856   -0.0012582661   0.14769031    -0.038229375   -0.0012590584   0.1377515      0.26596919    -7.7777823     -9.801684      -3.4362804     -6.6478036      66.958837      58.584295      57.442533      59.081356      3              198822.37      1.2072054      9349.8669      20732.73      -8070.3181      422.49056     -2633.3606      25008.573     -19947.217      2427.9946      744.6        
    744800   298.38614      25101.669      18730.557      43832.226     -977.81475     -843.32135     -1750.9754     -339.14755      0.13885719    -0.03670414     0.00053091702  0.14785274    -0.037394687    0.00053077613  0.13789301     27.057575      36.323447      20.845028     -3.9846113     -2.7387595      86.506478      58.597925      57.519772      59.005861      3              198881.57      1.2068461      9361.7316      20989.944     -7973.8039      396.92323     -2745.8721      25017         -19944.255      2326.8737      744.8        
    745000   297.39002      24857.127      18668.027      43525.155     -541.61442     -648.07996     -667.04277     -309.72052      0.138892      -0.035413219    0.0030936289   0.1478635     -0.036055476    0.0030888535   0.13790239     11.91288       9.8591585     -21.314092     -5.8083388      1.2966489      67.550184      58.504404      57.462835      58.983028      3              198290.85      1.2104413      9203.1906      20765.861     -7851.3269      400.53931     -2710.0922      24994.281     -19945.326      2338.8629      745          
    745200   299.85954      24872.412      18823.046      43695.458      1194.6058      1411.6893      28.912485      2143.2156      0.13892681    -0.033498326    0.0050613678   0.14773546    -0.034072248    0.0050486021   0.13779084     4.5699582      10.343069     -0.21921548     5.1907034      9.2893208      77.747645      58.387826      57.41102       59.029642      3              197873.54      1.2129941      9397.5668      20813.527     -8152.5674      402.9721      -2637.4913      24996.006     -19947.601      2410.9134      745.2        
    745400   296.85236      25065.336      18634.277      43699.614     -493.25791     -1516.1856     -147.55912      183.97102      0.13896162    -0.031037812    0.0064400874   0.14736138    -0.031529689    0.0064194386   0.13746486    -40.207753     -13.147654     -36.616698     -4.6058041      3.6472326      79.012227      58.347334      57.369554      59.189249      3              198127.75      1.2114378      9256.9848      20974.693     -7875.9787      415.09657     -2745.7857      24983.749     -19943.423      2294.5408      745.4        
    745600   296.74764      25196.104      18627.704      43823.807     -1116.4574     -1658.3584     -662.41252     -1028.6014      0.13899643    -0.029255479    0.0075482228   0.1470552     -0.029691954    0.0075198775   0.13719796     20.943916     -5.9838595      20.804662      6.148687       5.8394638      54.512017      58.308162      57.345052      59.324177      3              198361.34      1.2100112      9268.609       20875.076     -7695.089       420.45676     -2715.5485      24989.062     -19946.463      2327.0509      745.6        
    745800   294.91197      24981.575      18512.473      43494.049      754.12422      150.65681      1343.2393      768.47655      0.13903124    -0.028010068    0.0077226205   0.14719941    -0.028409832    0.0076929537   0.13732368    -7.9391818     -4.3233058      19.562022      2.1550321      11.094443      68.387831      58.232764      57.321042      59.285133      3              197891.56      1.2128836      9357.3394      20820.845     -8026.969       415.19663     -2631.9839      24996.889     -19949.742      2415.1629      745.8        
    746000   297.31801      24856.996      18663.507      43520.504      825.79428      2118.048      -283.34575      642.68059      0.13906605    -0.027258515    0.006741343    0.14733471    -0.02763692     0.0067187218   0.13744161    -24.193482      3.5900295     -6.1907907      4.4349213      7.8368827      78.218782      58.272049      57.340553      59.260952      3              198011.67      1.212148       9427.093       20786.768     -8192.9747      407.1103      -2630.5169      25006.767     -19947.25       2428.9994      746          
    746200   298.37673      24719.627      18729.967      43449.593      308.17999      743.06716      1266.9562     -1085.4834      0.13910085    -0.026656       0.0043871819   0.14739476    -0.027017713    0.0043775863   0.13749395    -8.5877831     -7.0463856      2.8270729     -1.8653397      17.595017      81.81542       58.402084      57.372533      59.281671      3              198633.64      1.2083524      9247.3204      20643.197     -7906.749       407.76515     -2669.8721      24946.768     -19948.803      2328.0931      746.2        
    746400   297.66958      24940.138      18685.576      43625.714      338.18225      943.28643     -432.55698      503.8173       0.13913566    -0.026434714    0.0014325986   0.14766788    -0.026790394    0.0014315734   0.13773195     17.988598      5.9066713      15.668902      12.244149      0.34619913     76.834437      58.5014        57.432563      59.21974       3              198971.54      1.2063004      9267.9527      20930.23      -8016.2407      416.49261     -2702.2277      24989.971     -19946.04       2341.7033      746.4        
    746600   299.76499      25386.415      18817.111      44203.527     -119.49863      960.68298     -805.37569     -513.80318      0.13917046    -0.027469613   -0.0015194582   0.14800555    -0.027853958   -0.0015206138   0.13802613    -7.7130894     -12.754101     -8.5423763      10.330846     -2.8222323      71.632564      58.545966      57.462474      59.129436      3              198923.01      1.2065946      9439.0303      21051.256     -7966.3729      405.03447     -2662.5508      25064.249     -19944.23       2457.4679      746.6        
    746800   298.32212      25127.749      18726.538      43854.288     -197.05923     -376.46012      656.40984     -871.12741      0.13920527    -0.028917973   -0.0031359691   0.14826554    -0.029344338   -0.0031408965   0.13825257     20.054057      5.8423863      4.8216595      2.821687      -21.170911      81.792716      58.56701       57.501639      59.057315      3              198887.27      1.2068115      9373.2337      20885.875     -7933.0459      418.4688      -2677.3847      25006.392     -19945.79       2383.2176      746.8        
    747000   298.60264      24825.109      18744.147      43569.256     -750.13593      347.04594     -2103.1765     -494.27725      0.13924007    -0.030236784   -0.0026348642   0.1483753     -0.030703345   -0.0026383416   0.13834816     8.7486302      1.318465      -11.377163     -2.5707303     -11.713977      69.995161      58.544975      57.542342      59.02199       3              198834.16      1.2071338      9381.1754      20696.605     -8020.5936      392.40781     -2648.0893      24970.978     -19947.374      2375.5141      747          
    747200   297.16472      24941.569      18653.885      43595.454     -304.96258     -286.47113      305.43659     -933.85321      0.13927487    -0.031989465   -0.0015057606   0.14833702    -0.032512308   -0.0015068954   0.13831482     19.639403     -3.8963338     -13.255805      6.7609231     -15.21456       71.85859       58.424249      57.568142      59.037242      3              198564.41      1.2087737      9331.5452      20824.123     -7998.6668      408.51177     -2677.4967      24998.53      -19944.977      2376.0558      747.2        
    747400   295.03825      24902.226      18520.4        43422.626      147.2602      -122.39199      391.28226      172.89032      0.13930967    -0.033300812    0.00029501718  0.14819375    -0.033867909    0.00029497367  0.13819006    -9.6176224     -3.6840423      15.049046     -11.914305      0.87074501     77.913932      58.293057      57.640432      59.084748      3              198526.94      1.2090019      9344.7901      20901.944     -8102.9031      412.47185     -2655.3244      24944.936     -19943.689      2345.9227      747.4        
    747600   297.17608      24763.204      18654.598      43417.802     -463.32643     -1058.9526      226.47237     -557.4991       0.13934446    -0.034386231    0.0020332379   0.1481703     -0.03499135     0.0020311737   0.13816963    -23.886699      4.3056278      4.1172745      6.7791573      4.8464214      54.898402      58.261899      57.709939      59.083127      3              198654.64      1.2082247      9364.0943      20761.734     -8089.0478      406.26501     -2720.8085      24983.55      -19942.583      2320.1584      747.6        
    747800   300.38798      25068.234      18856.218      43924.452     -990.6345      -249.02096     -1443.6033     -1279.2792      0.13937926    -0.035591908    0.0030244187   0.14819674    -0.036240742    0.0030198543   0.13819266    -16.534411      30.81112      -7.5420632      1.6822157      12.672253      61.208855      58.317992      57.713189      59.070119      3              198813.32      1.2072604      9277.2173      20959.024     -7840.8924      397.82233     -2721.0917      24942.877     -19946.723      2275.0624      747.8        
    748000   298.05808      24998.495      18709.964      43708.458     -916.66672     -464.51436     -1655.812      -629.67384      0.13941406    -0.037228736    0.0024456402   0.1483428     -0.03793942     0.0024426545   0.13831986    -1.7062861     -8.5460623      7.1156743     -1.6082537      5.5667889      67.780524      58.403778      57.604119      59.030188      3              198595.15      1.2085866      9253.3462      20769.856     -7735.0517      424.77765     -2720.9682      24953.146     -19946.612      2285.5661      748          
    748200   298.13928      24858.971      18715.061      43574.032      175.68848      329.53865      16.597137      180.92967      0.13944885    -0.038777121    0.00095183362  0.14847993    -0.039548973    0.00095138091  0.13843927    -2.5206598     -18.087367     -15.383924     -5.3406542      13.279528      76.191616      58.48829       57.521342      59.009323      3              198526.54      1.2090043      9359.2763      20654.579     -8023.1923      412.89167     -2589.139       24991.929     -19947.373      2455.4165      748.2        
    748400   292.85361      24985.233      18383.264      43368.498      64.669535      490.54851      395.54421     -692.08411      0.13948364    -0.039125836   -0.0002587252   0.14860632    -0.039911822   -0.00025875867  0.13854931     10.188118      3.2557437      26.20395      -9.572729      -10.378341      70.84151       58.563232      57.481888      58.992516      3              198587.99      1.2086302      9320.6721      20761.837     -7909.0297      428.34714     -2655.1987      24983.798     -19945.192      2383.4073      748.4        
    748600   297.00836      25062.192      18644.07       43706.261      368.92518     -124.68386     -46.187189      1277.6466      0.13951843    -0.038752575   -0.0009390032   0.14890948    -0.039523437   -0.00093944434  0.13881321     3.6863726     -16.247386     -29.946486     -7.5930208     -7.9462785      68.488256      58.613634      57.493904      58.89786       3              198481.47      1.2092788      9233.6254      20867.214     -7840.0054      432.77507     -2671.1754      24985.849     -19946.091      2368.5823      748.6        
    748800   299.65622      24966.257      18810.283      43776.541     -352.09775     -598.11351     -479.63173      21.452002      0.13955322    -0.037074127   -0.00038350516  0.14880194    -0.037778845   -0.00038357872  0.13871961     7.9168748      18.256067     -0.027360812   -12.472778     -2.3765283      64.656225      58.679265      57.482521      58.951665      3              198845.85      1.2070628      9205.8484      20834.515     -7933.3173      415.81778     -2612.6398      25007.295     -19951.261      2443.3938      748.8        
    749000   298.46475      24882.153      18735.492      43617.645     -66.500047      230.32128     -431.11489      1.2934736      0.13958801    -0.034522137    0.00032201093  0.1485812     -0.035132105    0.0003219591   0.13852744     22.171206     -3.7811049      7.3401938      5.5423907      1.330136       69.038269      58.716147      57.495364      59.051523      3              199352.41      1.2039957      9444.6866      20789.549     -8079.2737      408.85814     -2760.3888      25026.679     -19947.957      2318.333       749          
    749200   299.02383      25055.236      18770.587      43825.823      177.24583      671.97243      772.17129     -912.40622      0.1396228     -0.031250507    0.0010862678   0.14852355    -0.031749221    0.0010856783   0.13847725     1.091945       11.776356      6.5977083     -4.0311314     -5.0106066      82.134285      58.645749      57.443878      59.087708      3              199056.99      1.2057825      9308.7321      20846.992     -7891.8737      383.20541     -2623.8619      24977.864     -19945.823      2408.1798      749.2        
    749400   297.74408      24944.78       18690.253      43635.033     -226.93548      1423.3584     -1621.7655     -482.39939      0.13965759    -0.027739974    0.0014651323   0.14858237    -0.028131994    0.0014640601   0.13852846    -7.6903352     -15.343162     -2.6799544      7.080333       13.025499      77.309854      58.555549      57.404013      59.083238      3              198597.87      1.20857        9257.981       20896.284     -8055.0269      399.72243     -2623.0993      25013.189     -19944.271      2445.8194      749.4        
    749600   299.43601      24755.936      18796.461      43552.397     -597.98271     -75.838164     -219.2985      -1498.8115      0.13969237    -0.025019177    0.0011954975   0.14875403    -0.025337477    0.0011947835   0.13867791    -6.7504909     -11.607499      15.797132      13.209502      8.4045434      63.021735      58.557035      57.451539      59.038531      3              198616.94      1.208454       9285.8991      20786.763     -8088.2563      412.72688     -2680.3213      24979.33      -19940.205      2358.8039      749.6        
    749800   297.30263      24891.289      18662.542      43553.831     -365.10546     -869.98386      45.082877     -270.4154       0.13972716    -0.024461546    0.00010375127  0.14891327    -0.0247657      0.00010374589  0.13881651     15.464975      16.811287      1.0148119      29.53011      -7.6453905      75.743758      58.534439      57.474978      59.002208      3              198499.1       1.2091714      9217.4933      20755.148     -7804.0078      409.88144     -2704.5979      24959.951     -19942.579      2312.7744      749.8        
    750000   299.21944      24769.586      18782.865      43552.451     -40.222368     -667.25496      936.94719     -390.35933      0.13976194    -0.025258708   -0.00093532535  0.14905213    -0.025583185   -0.00093576304  0.13893737     5.8788424     -16.110055     -8.9449274     -2.0292913      10.074448      75.559388      58.403735      57.465041      58.971544      3              197918.7       1.2127173      9329.5003      20652.099     -7946.1996      415.7508      -2646.7813      24910.014     -19944.798      2318.4347      750          
WARNING: Bond/angle/dihedral extent > half of periodic box length (../domain.cpp:1172)
Loop time of 22151.9 on 16 procs for 750000 steps with 21060 atoms

Performance: 2.925 ns/day, 8.204 hours/ns, 33.857 timesteps/s, 713.030 katom-step/s
99.1% CPU use with 16 MPI tasks x no OpenMP threads

MPI task timing breakdown:
Section |  min time  |  avg time  |  max time  |%varavg| %total
---------------------------------------------------------------
Pair    | 12986      | 13656      | 13994      | 234.1 | 61.65
Bond    | 2867.3     | 2972       | 3083.9     | 102.8 | 13.42
Kspace  | 963.88     | 1353.7     | 2110.8     | 839.3 |  6.11
Neigh   | 3374.8     | 3375       | 3375.1     |   0.2 | 15.24
Comm    | 255.52     | 257.31     | 258.71     |   6.5 |  1.16
Output  | 103.18     | 103.19     | 103.2      |   0.1 |  0.47
Modify  | 277.11     | 363.02     | 403.76     | 251.2 |  1.64
Other   |            | 72.08      |            |       |  0.33

Nlocal:        1316.25 ave        1366 max        1260 min
Histogram: 1 0 1 2 2 4 3 0 2 1
Nghost:        13549.4 ave       13636 max       13499 min
Histogram: 3 2 3 2 2 1 1 0 0 2
Neighs:         804570 ave      848480 max      760037 min
Histogram: 1 0 2 3 1 3 3 2 0 1

Total # of neighbors = 12873113
Ave neighs/atom = 611.25893
Ave special neighs/atom = 5.8048433
Neighbor list builds = 37716
Dangerous builds = 0

#-------------------Wrap up-------------------
write_restart   ${myid}.restart
write_restart   shear_3_EPON_862_pxld_88.2_replicate_1_FF_PCFF-class2xe.restart
System init for write_restart ...
PPPM initialization ...
  using 12-bit tables for long-range coulomb (../kspace.cpp:342)
  G vector (1/distance) = 0.18263959
  grid = 15 15 18
  stencil order = 5
  estimated absolute RMS force accuracy = 0.020316482
  estimated relative force accuracy = 6.1182483e-05
  using double precision KISS FFT
  3d grid and FFT values/proc = 1690 450
Generated 66 of 66 mixed pair_coeff terms from sixthpower/sixthpower mixing rule
write_data      ${myid}.data
write_data      shear_3_EPON_862_pxld_88.2_replicate_1_FF_PCFF-class2xe.data
System init for write_data ...
PPPM initialization ...
  using 12-bit tables for long-range coulomb (../kspace.cpp:342)
  G vector (1/distance) = 0.18263959
  grid = 15 15 18
  stencil order = 5
  estimated absolute RMS force accuracy = 0.020316482
  estimated relative force accuracy = 6.1182483e-05
  using double precision KISS FFT
  3d grid and FFT values/proc = 1690 450
Generated 66 of 66 mixed pair_coeff terms from sixthpower/sixthpower mixing rule
Total wall time: 6:09:12
