reated with sheet_builder v1.2 / 23 February 2025 > atom_typing v1.10 / 10 May 2024 w/PCFF-IFF atom-types > all2lmp: v1.21 / 13 November 2024  Class: 2 > add_pi_electrons version: v1.7 / 14 April 2025 w/types2convert=[3]

3744 atoms
4356 bonds
11052 angles
9180 dihedrals
1872 impropers

8 atom types
10 bond types
18 angle types
25 dihedral types
13 improper types

-14.757072881 14.757072881 xlo xhi
-14.910000000 14.910000000 ylo yhi
-15.645217426 15.645217426 zlo zhi

Masses

 1   12.01115  # c
 2   12.01115  # c2
 3   12.01115  # cp->cg1
 4   1.00797   # hc
 5   14.00670  # nn
 6   15.99940  # op
 7   10.01115  # cg1
 8   1.00000   # cge

Pair Coeffs  # lj/class2/coul/long

 1        0.05400000      4.01000000 # c
 2        0.05400000      4.01000000 # c2
 3        0.06200000      3.93200000 # cp->cg1
 4        0.02000000      2.30000000 # hc
 5        0.06500000      4.07000000 # nn
 6        0.10900000      3.53500000 # op
 7        0.06200000      3.93200000 # cg1
 8        0.00001000      0.00001000 # cge

Bond Coeffs  # class2

 1        1.50100000    321.90210000   -521.82080000    572.16280000                 # c           cp
 2        1.50100000    321.90210000   -521.82080000    572.16280000                 # c2          cp
 3        1.10100000    345.00000000   -691.89000000    844.60000000                 # c2          hc
 4        1.47000000    356.59880000      0.00000000      0.00000000                 # c2          nn
 5        1.38000000    346.54840000      0.00000000      0.00000000                 # c2          op
 6        1.42000000    480.00000000      0.00000000      0.00000000                 # cg1        cg1   
 7        1.09820000    372.82510000   -803.45260000    894.31730000                 # cp          hc
 8        1.39120000    447.04380000   -784.53460000    886.16710000                 # cp          nn
 9        1.35970000    547.51690000   -834.06650000    544.30900000                 # cp          op
10        0.65000000    250.00000000      0.00000000      0.00000000                 # cg1        cge   

Angle Coeffs  # class2

 1      120.05000000     44.71480000    -22.73520000      0.00000000 # c          cp         cp
 2      120.05000000     44.71480000    -22.73520000      0.00000000 # c2         cp         cp
 3      120.00000000     50.00000000      0.00000000      0.00000000 # c2         nn         c2
 4      120.00000000     50.00000000      0.00000000      0.00000000 # c2         nn         cp
 5      108.00000000     75.00000000      0.00000000      0.00000000 # c2         op         cp
 6      111.00000000     44.32340000     -9.44540000      0.00000000 # cp         c          cp
 7      111.00000000     44.32340000     -9.44540000      0.00000000 # cp         c2         hc
 8      114.00000000     50.00000000      0.00000000      0.00000000 # cp         c2         nn
 9      120.00000000     90.00000000      0.00000000      0.00000000 # cg1       cg1        cg1   
10      117.94000000     35.15580000    -12.46820000      0.00000000 # cp         cp         hc
11      121.45840000     61.06470000    -21.61720000      0.00000000 # cp         cp         nn
12      104.17000000    101.32060000    -17.30720000      0.00000000 # cp         cp         op
13      107.66000000     39.64100000    -12.92100000     -2.43180000 # hc         c2         hc
14      109.50000000     50.00000000      0.00000000      0.00000000 # hc         c2         nn
15      109.50000000     70.00000000      0.00000000      0.00000000 # hc         c2         op
16      109.50000000     70.00000000      0.00000000      0.00000000 # nn         c2         op
17       90.00000000     50.00000000      0.00000000      0.00000000 # cge       cg1        cg1   
18      180.00000000     50.00000000      0.00000000      0.00000000 # cge       cg1        cge   

Dihedral Coeffs  # class2

 1       -0.28020000      0.00000000     -0.06780000      0.00000000     -0.01220000      0.00000000 # cp         c         cp         cp
 2        0.00000000      0.00000000      0.00000000      0.00000000      0.00000000      0.00000000 # cp         c2        nn         cp
 3       -0.28010000      0.00000000     -0.06780000      0.00000000     -0.01220000      0.00000000 # hc         c2        cp         cp
 4        0.00000000      0.00000000      0.00000000      0.00000000      0.00000000      0.00000000 # nn         c2        cp         cp
 5        0.00000000      0.00000000      4.40720000      0.00000000      0.00000000      0.00000000 # c2         cp        cp         cp
 6        0.00000000      0.00000000      0.00000000      0.00000000      0.00000000      0.00000000 # cg1       cg1       cg1        cg1   
 7        0.00000000      0.00000000      4.40720000      0.00000000      0.00000000      0.00000000 # c          cp        cp         cp
 8        0.00000000      0.00000000      1.87690000      0.00000000      0.00000000      0.00000000 # hc         cp        cp         hc
 9        0.00000000      0.00000000      1.55900000      0.00000000      0.00000000      0.00000000 # c2         cp        cp         hc
10        0.00000000      0.00000000      3.96610000      0.00000000      0.00000000      0.00000000 # cp         cp        cp         hc
11        0.00000000      0.00000000      1.55900000      0.00000000      0.00000000      0.00000000 # c          cp        cp         hc
12        0.00000000      0.00000000      1.33310000      0.00000000      0.00000000      0.00000000 # hc         cp        cp         nn
13        0.00000000      0.00000000      5.38260000      0.00000000      0.00000000      0.00000000 # cp         cp        cp         nn
14        0.00000000      0.00000000      3.00000000      0.00000000      0.00000000      0.00000000 # c2         cp        cp         op
15        0.00000000      0.00000000      3.35160000      0.00000000      0.00000000      0.00000000 # hc         cp        cp         op
16        0.00000000      0.00000000     10.69230000      0.00000000      0.00000000      0.00000000 # cp         cp        cp         op
17        0.00000000      0.00000000      0.00000000      0.00000000      0.00000000      0.00000000 # cp         c2        nn         c2
18        0.00000000      0.00000000      0.00000000      0.00000000      0.00000000      0.00000000 # hc         c2        nn         cp
19        0.00000000      0.00000000      0.00000000      0.00000000      0.00000000      0.00000000 # hc         c2        nn         c2
20        0.00000000      0.00000000      0.00000000      0.00000000      0.00000000      0.00000000 # op         c2        nn         cp
21        0.00000000      0.00000000      0.00000000      0.00000000      0.00000000      0.00000000 # op         c2        nn         c2
22        0.00000000      0.00000000      2.25000000      0.00000000      0.00000000      0.00000000 # cp         cp        nn         c2
23        0.00000000      0.00000000      0.00000000      0.00000000      0.13000000      0.00000000 # hc         c2        op         cp
24        0.00000000      0.00000000      0.00000000      0.00000000      0.13000000      0.00000000 # nn         c2        op         cp
25        0.00000000      0.00000000      1.80000000      0.00000000      0.00000000      0.00000000 # cp         cp        op         c2

Improper Coeffs  # class2

 1        7.81530000      0.00000000 # c          cp        cp        cp      nb==3
 2        7.81530000      0.00000000 # c2         cp        cp        cp      nb==3
 3        0.10000000      0.00000000 # c2         nn        c2        cp      nb==3
 4        0.00000000      0.00000000 # cg1       cg1       cg1       cg1      nb==3   
 5        4.89120000      0.00000000 # cp         cp        cp        hc      nb==3
 6       10.78550000      0.00000000 # cp         cp        cp        nn      nb==3
 7       10.00000000      0.00000000 # cp         cp        cp        op      nb==3
 8        0.00000000      0.00000000 # cp         c         cp        cp      nb!=3
 9        0.00000000      0.00000000 # cp         c2        hc        hc      nb!=3
10        0.00000000      0.00000000 # cp         c2        hc        nn      nb!=3
11        0.00000000      0.00000000 # hc         c2        hc        nn      nb!=3
12        0.00000000      0.00000000 # hc         c2        hc        op      nb!=3
13        0.00000000      0.00000000 # hc         c2        nn        op      nb!=3

BondBond Coeffs  # class2

 1       12.06760000      1.50100000      1.41700000 # c          cp         cp
 2       12.06760000      1.50100000      1.41700000 # c2         cp         cp
 3        0.00000000      1.47000000      1.47000000 # c2         nn         c2
 4        0.00000000      1.47000000      1.39120000 # c2         nn         cp
 5        0.00000000      1.38000000      1.35970000 # c2         op         cp
 6        0.00000000      1.50100000      1.50100000 # cp         c          cp
 7        2.91680000      1.50100000      1.10100000 # cp         c2         hc
 8        0.00000000      1.50100000      1.47000000 # cp         c2         nn
 9        0.00000000      0.00000000      0.00000000 # cg1       cg1        cg1   
10        1.07950000      1.41700000      1.09820000 # cp         cp         hc
11       46.95130000      1.41700000      1.39120000 # cp         cp         nn
12       80.02900000      1.41700000      1.35970000 # cp         cp         op
13        5.33160000      1.10100000      1.10100000 # hc         c2         hc
14        0.00000000      1.10100000      1.47000000 # hc         c2         nn
15        0.00000000      1.10100000      1.38000000 # hc         c2         op
16        0.00000000      1.47000000      1.38000000 # nn         c2         op
17        0.00000000      0.00000000      0.00000000 # cge       cg1        cg1   
18        0.00000000      0.00000000      0.00000000 # cge       cg1        cge   

BondAngle Coeffs  # class2

 1       47.05790000     31.07710000      1.50100000      1.41700000 # c          cp         cp
 2       47.05790000     31.07710000      1.50100000      1.41700000 # c2         cp         cp
 3        0.00000000      0.00000000      1.47000000      1.47000000 # c2         nn         c2
 4        0.00000000      0.00000000      1.47000000      1.39120000 # c2         nn         cp
 5        0.00000000      0.00000000      1.38000000      1.35970000 # c2         op         cp
 6        0.00000000      0.00000000      1.50100000      1.50100000 # cp         c          cp
 7       26.46080000     11.77170000      1.50100000      1.10100000 # cp         c2         hc
 8        0.00000000      0.00000000      1.50100000      1.47000000 # cp         c2         nn
 9        0.00000000      0.00000000      0.00000000      0.00000000 # cg1       cg1        cg1   
10       20.00330000     24.21830000      1.41700000      1.09820000 # cp         cp         hc
11       39.40400000     73.65480000      1.41700000      1.39120000 # cp         cp         nn
12       97.67700000    187.82820000      1.41700000      1.35970000 # cp         cp         op
13       18.10300000     18.10300000      1.10100000      1.10100000 # hc         c2         hc
14        0.00000000      0.00000000      1.10100000      1.47000000 # hc         c2         nn
15        0.00000000      0.00000000      1.10100000      1.38000000 # hc         c2         op
16        0.00000000      0.00000000      1.47000000      1.38000000 # nn         c2         op
17        0.00000000      0.00000000      0.00000000      0.00000000 # cge       cg1        cg1   
18        0.00000000      0.00000000      0.00000000      0.00000000 # cge       cg1        cge   

AngleAngleTorsion Coeffs  # class2

 1        0.00000000    111.00000000    120.05000000 # cp         c         cp         cp
 2        0.00000000    114.00000000    120.00000000 # cp         c2        nn         cp
 3       -5.88880000    111.00000000    120.05000000 # hc         c2        cp         cp
 4        0.00000000    114.00000000    120.05000000 # nn         c2        cp         cp
 5      -14.40970000    120.05000000    118.90000000 # c2         cp        cp         cp
 6        0.00000000      0.00000000      0.00000000 # cg1       cg1       cg1        cg1   
 7      -14.40970000    120.05000000    118.90000000 # c          cp        cp         cp
 8        0.35980000    117.94000000    117.94000000 # hc         cp        cp         hc
 9        4.44440000    120.05000000    117.94000000 # c2         cp        cp         hc
10       -4.81410000    118.90000000    117.94000000 # cp         cp        cp         hc
11        4.44440000    120.05000000    117.94000000 # c          cp        cp         hc
12        0.00000000    117.94000000    121.45840000 # hc         cp        cp         nn
13        0.00000000    118.90000000    121.45840000 # cp         cp        cp         nn
14        0.00000000    120.05000000    104.17000000 # c2         cp        cp         op
15       -6.03170000    117.94000000    104.17000000 # hc         cp        cp         op
16        0.00000000    118.90000000    104.17000000 # cp         cp        cp         op
17        0.00000000    114.00000000    120.00000000 # cp         c2        nn         c2
18        0.00000000    109.50000000    120.00000000 # hc         c2        nn         cp
19        0.00000000    109.50000000    120.00000000 # hc         c2        nn         c2
20        0.00000000    109.50000000    120.00000000 # op         c2        nn         cp
21        0.00000000    109.50000000    120.00000000 # op         c2        nn         c2
22        0.00000000    121.45840000    120.00000000 # cp         cp        nn         c2
23        0.00000000    109.50000000    108.00000000 # hc         c2        op         cp
24        0.00000000    109.50000000    108.00000000 # nn         c2        op         cp
25        0.00000000    104.17000000    108.00000000 # cp         cp        op         c2

EndBondTorsion Coeffs  # class2

 1        0.00000000      0.00000000      0.00000000      0.00000000      0.00000000      0.00000000      1.50100000      1.41700000 # cp         c         cp         cp
 2        0.00000000      0.00000000      0.00000000      0.00000000      0.00000000      0.00000000      1.50100000      1.39120000 # cp         c2        nn         cp
 3        1.39970000      0.77560000      0.00000000     -0.58350000      1.12200000      0.39780000      1.10100000      1.41700000 # hc         c2        cp         cp
 4        0.00000000      0.00000000      0.00000000      0.00000000      0.00000000      0.00000000      1.47000000      1.41700000 # nn         c2        cp         cp
 5        0.00000000      0.24210000      0.00000000      0.00000000     -0.69180000      0.00000000      1.50100000      1.41700000 # c2         cp        cp         cp
 6        0.00000000      0.00000000      0.00000000      0.00000000      0.00000000      0.00000000      0.00000000      0.00000000 # cg1       cg1       cg1        cg1   
 7        0.00000000      0.24210000      0.00000000      0.00000000     -0.69180000      0.00000000      1.50100000      1.41700000 # c          cp        cp         cp
 8        0.00000000     -0.68900000      0.00000000      0.00000000     -0.68900000      0.00000000      1.09820000      1.09820000 # hc         cp        cp         hc
 9        0.00000000     -1.79700000      0.00000000      0.00000000     -0.48790000      0.00000000      1.50100000      1.09820000 # c2         cp        cp         hc
10        0.00000000     -6.89580000      0.00000000      0.00000000     -0.46690000      0.00000000      1.41700000      1.09820000 # cp         cp        cp         hc
11        0.00000000     -1.79700000      0.00000000      0.00000000     -0.48790000      0.00000000      1.50100000      1.09820000 # c          cp        cp         hc
12        0.00000000     -2.64820000      0.00000000      0.00000000     -1.64020000      0.00000000      1.09820000      1.39120000 # hc         cp        cp         nn
13        0.00000000     -6.54040000      0.00000000      0.00000000     -7.34770000      0.00000000      1.41700000      1.39120000 # cp         cp        cp         nn
14        0.00000000      0.00000000      0.00000000      0.00000000      0.00000000      0.00000000      1.50100000      1.35970000 # c2         cp        cp         op
15        0.00000000     -2.25360000      0.00000000      0.00000000     -5.72590000      0.00000000      1.09820000      1.35970000 # hc         cp        cp         op
16        0.00000000    -30.54140000      0.00000000      0.00000000    -19.32850000      0.00000000      1.41700000      1.35970000 # cp         cp        cp         op
17        0.00000000      0.00000000      0.00000000      0.00000000      0.00000000      0.00000000      1.50100000      1.47000000 # cp         c2        nn         c2
18        0.00000000      0.00000000      0.00000000      0.00000000      0.00000000      0.00000000      1.10100000      1.39120000 # hc         c2        nn         cp
19        0.00000000      0.00000000      0.00000000      0.00000000      0.00000000      0.00000000      1.10100000      1.47000000 # hc         c2        nn         c2
20        0.00000000      0.00000000      0.00000000      0.00000000      0.00000000      0.00000000      1.38000000      1.39120000 # op         c2        nn         cp
21        0.00000000      0.00000000      0.00000000      0.00000000      0.00000000      0.00000000      1.38000000      1.47000000 # op         c2        nn         c2
22        0.00000000      0.00000000      0.00000000      0.00000000      0.00000000      0.00000000      1.41700000      1.47000000 # cp         cp        nn         c2
23        0.00000000      0.00000000      0.00000000      0.00000000      0.00000000      0.00000000      1.10100000      1.35970000 # hc         c2        op         cp
24        0.00000000      0.00000000      0.00000000      0.00000000      0.00000000      0.00000000      1.47000000      1.35970000 # nn         c2        op         cp
25        0.00000000      0.00000000      0.00000000      0.00000000      0.00000000      0.00000000      1.41700000      1.38000000 # cp         cp        op         c2

MiddleBondTorsion Coeffs  # class2

 1        0.00000000      0.00000000      0.00000000      1.50100000 # cp         c         cp         cp
 2        0.00000000      0.00000000      0.00000000      1.47000000 # cp         c2        nn         cp
 3       -5.56790000      1.40830000      0.30100000      1.50100000 # hc         c2        cp         cp
 4        0.00000000      0.00000000      0.00000000      1.50100000 # nn         c2        cp         cp
 5        0.00000000      9.17920000      0.00000000      1.41700000 # c2         cp        cp         cp
 6        0.00000000      0.00000000      0.00000000      0.00000000 # cg1       cg1       cg1        cg1   
 7        0.00000000      9.17920000      0.00000000      1.41700000 # c          cp        cp         cp
 8        0.00000000      4.82280000      0.00000000      1.41700000 # hc         cp        cp         hc
 9        0.00000000      3.94210000      0.00000000      1.41700000 # c2         cp        cp         hc
10        0.00000000     -1.15210000      0.00000000      1.41700000 # cp         cp        cp         hc
11        0.00000000      3.94210000      0.00000000      1.41700000 # c          cp        cp         hc
12        0.00000000      2.28830000      0.00000000      1.41700000 # hc         cp        cp         nn
13        0.00000000     -0.56930000      0.00000000      1.41700000 # cp         cp        cp         nn
14        0.00000000      0.00000000      0.00000000      1.41700000 # c2         cp        cp         op
15        0.00000000      5.20060000      0.00000000      1.41700000 # hc         cp        cp         op
16        0.00000000     26.42720000      0.00000000      1.41700000 # cp         cp        cp         op
17        0.00000000      0.00000000      0.00000000      1.47000000 # cp         c2        nn         c2
18        0.00000000      0.00000000      0.00000000      1.47000000 # hc         c2        nn         cp
19        0.00000000      0.00000000      0.00000000      1.47000000 # hc         c2        nn         c2
20        0.00000000      0.00000000      0.00000000      1.47000000 # op         c2        nn         cp
21        0.00000000      0.00000000      0.00000000      1.47000000 # op         c2        nn         c2
22        0.00000000      0.00000000      0.00000000      1.39120000 # cp         cp        nn         c2
23        0.00000000      0.00000000      0.00000000      1.38000000 # hc         c2        op         cp
24        0.00000000      0.00000000      0.00000000      1.38000000 # nn         c2        op         cp
25        0.00000000      0.00000000      0.00000000      1.35970000 # cp         cp        op         c2

BondBond13 Coeffs  # class2

 1        0.00000000      1.50100000      1.41700000 # cp         c         cp         cp
 2        0.00000000      1.50100000      1.39120000 # cp         c2        nn         cp
 3       -3.48260000      1.10100000      1.41700000 # hc         c2        cp         cp
 4        0.00000000      1.47000000      1.41700000 # nn         c2        cp         cp
 5        2.50850000      1.50100000      1.41700000 # c2         cp        cp         cp
 6        0.00000000      0.00000000      0.00000000 # cg1       cg1       cg1        cg1   
 7        2.50850000      1.50100000      1.41700000 # c          cp        cp         cp
 8       -1.70770000      1.09820000      1.09820000 # hc         cp        cp         hc
 9        0.87430000      1.50100000      1.09820000 # c2         cp        cp         hc
10       -6.27410000      1.41700000      1.09820000 # cp         cp        cp         hc
11        0.87430000      1.50100000      1.09820000 # c          cp        cp         hc
12       -1.07460000      1.09820000      1.39120000 # hc         cp        cp         nn
13       -9.79990000      1.41700000      1.39120000 # cp         cp        cp         nn
14        0.00000000      1.50100000      1.35970000 # c2         cp        cp         op
15       -1.71330000      1.09820000      1.35970000 # hc         cp        cp         op
16      -73.84100000      1.41700000      1.35970000 # cp         cp        cp         op
17        0.00000000      1.50100000      1.47000000 # cp         c2        nn         c2
18        0.00000000      1.10100000      1.39120000 # hc         c2        nn         cp
19        0.00000000      1.10100000      1.47000000 # hc         c2        nn         c2
20        0.00000000      1.38000000      1.39120000 # op         c2        nn         cp
21        0.00000000      1.38000000      1.47000000 # op         c2        nn         c2
22        0.00000000      1.41700000      1.47000000 # cp         cp        nn         c2
23        0.00000000      1.10100000      1.35970000 # hc         c2        op         cp
24        0.00000000      1.47000000      1.35970000 # nn         c2        op         cp
25        0.00000000      1.41700000      1.38000000 # cp         cp        op         c2

AngleTorsion Coeffs  # class2

 1        0.00000000      0.00000000      0.00000000      0.00000000      0.00000000      0.00000000    111.00000000    120.05000000 # cp         c         cp         cp
 2        0.00000000      0.00000000      0.00000000      0.00000000      0.00000000      0.00000000    114.00000000    120.00000000 # cp         c2        nn         cp
 3        4.62660000      0.16320000      0.04610000      0.22510000      0.65480000      0.12370000    111.00000000    120.05000000 # hc         c2        cp         cp
 4        0.00000000      0.00000000      0.00000000      0.00000000      0.00000000      0.00000000    114.00000000    120.05000000 # nn         c2        cp         cp
 5        0.00000000     -4.46830000      0.00000000      0.00000000      3.89870000      0.00000000    120.05000000    118.90000000 # c2         cp        cp         cp
 6        0.00000000      0.00000000      0.00000000      0.00000000      0.00000000      0.00000000      0.00000000      0.00000000 # cg1       cg1       cg1        cg1   
 7        0.00000000     -4.46830000      0.00000000      0.00000000      3.89870000      0.00000000    120.05000000    118.90000000 # c          cp        cp         cp
 8        0.00000000      2.45010000      0.00000000      0.00000000      2.45010000      0.00000000    117.94000000    117.94000000 # hc         cp        cp         hc
 9        0.00000000     -0.12420000      0.00000000      0.00000000      3.46010000      0.00000000    120.05000000    117.94000000 # c2         cp        cp         hc
10        0.00000000      2.50140000      0.00000000      0.00000000      2.71470000      0.00000000    118.90000000    117.94000000 # cp         cp        cp         hc
11        0.00000000     -0.12420000      0.00000000      0.00000000      3.46010000      0.00000000    120.05000000    117.94000000 # c          cp        cp         hc
12        0.00000000      2.98130000      0.00000000      0.00000000      0.27870000      0.00000000    117.94000000    121.45840000 # hc         cp        cp         nn
13        0.00000000      9.09010000      0.00000000      0.00000000     -6.08820000      0.00000000    118.90000000    121.45840000 # cp         cp        cp         nn
14        0.00000000      0.00000000      0.00000000      0.00000000      0.00000000      0.00000000    120.05000000    104.17000000 # c2         cp        cp         op
15        0.00000000      3.17230000      0.00000000      0.00000000     -1.68820000      0.00000000    117.94000000    104.17000000 # hc         cp        cp         op
16        0.00000000     15.07200000      0.00000000      0.00000000     22.83700000      0.00000000    118.90000000    104.17000000 # cp         cp        cp         op
17        0.00000000      0.00000000      0.00000000      0.00000000      0.00000000      0.00000000    114.00000000    120.00000000 # cp         c2        nn         c2
18        0.00000000      0.00000000      0.00000000      0.00000000      0.00000000      0.00000000    109.50000000    120.00000000 # hc         c2        nn         cp
19        0.00000000      0.00000000      0.00000000      0.00000000      0.00000000      0.00000000    109.50000000    120.00000000 # hc         c2        nn         c2
20        0.00000000      0.00000000      0.00000000      0.00000000      0.00000000      0.00000000    109.50000000    120.00000000 # op         c2        nn         cp
21        0.00000000      0.00000000      0.00000000      0.00000000      0.00000000      0.00000000    109.50000000    120.00000000 # op         c2        nn         c2
22        0.00000000      0.00000000      0.00000000      0.00000000      0.00000000      0.00000000    121.45840000    120.00000000 # cp         cp        nn         c2
23        0.00000000      0.00000000      0.00000000      0.00000000      0.00000000      0.00000000    109.50000000    108.00000000 # hc         c2        op         cp
24        0.00000000      0.00000000      0.00000000      0.00000000      0.00000000      0.00000000    109.50000000    108.00000000 # nn         c2        op         cp
25        0.00000000      0.00000000      0.00000000      0.00000000      0.00000000      0.00000000    104.17000000    108.00000000 # cp         cp        op         c2

AngleAngle Coeffs  # class2

 1        0.00000000      0.00000000      0.00000000    120.05000000    118.90000000    120.05000000 # c          cp        cp        cp      nb==3
 2        0.00000000      0.00000000      0.00000000    120.05000000    118.90000000    120.05000000 # c2         cp        cp        cp      nb==3
 3        0.00000000      0.00000000      0.00000000    120.00000000    120.00000000    120.00000000 # c2         nn        c2        cp      nb==3
 4        0.00000000      0.00000000      0.00000000      0.00000000      0.00000000      0.00000000 # cg1       cg1       cg1       cg1      nb==3   
 5        0.00000000      0.00000000      0.00000000    118.90000000    117.94000000    117.94000000 # cp         cp        cp        hc      nb==3
 6        0.00000000      0.00000000      0.00000000    118.90000000    121.45840000    121.45840000 # cp         cp        cp        nn      nb==3
 7        0.00000000      0.00000000      0.00000000    118.90000000    104.17000000    104.17000000 # cp         cp        cp        op      nb==3
 8        0.00000000      0.00000000      0.00000000    111.00000000    111.00000000    111.00000000 # cp         c         cp        cp      nb!=3
 9        2.37940000      3.01180000      2.37940000    111.00000000    111.00000000    107.66000000 # cp         c2        hc        hc      nb!=3
10        0.00000000      0.00000000      0.00000000    111.00000000    109.50000000    114.00000000 # cp         c2        hc        nn      nb!=3
11        0.00000000      0.00000000      0.00000000    107.66000000    109.50000000    109.50000000 # hc         c2        hc        nn      nb!=3
12        0.00000000      0.00000000      0.00000000    107.66000000    109.50000000    109.50000000 # hc         c2        hc        op      nb!=3
13        0.00000000      0.00000000      0.00000000    109.50000000    109.50000000    109.50000000 # hc         c2        nn        op      nb!=3

Atoms # full

  1     1   1   0.000000   -14.047072880   -14.200000000   -3.354000000   0  0  0  # c/C
  2     1   3   0.000000   -12.817316807   -13.490000000   -3.354000000   0  0  0  # cg1/C