HEADER,  L10.mol2  read w/ mol2SYBYL2lmp > atom_typing v1.4 / 2 May 2023 w/DREIDING atom-types > all2lmp: v1.7 / 2 May 2023  Class: d

32 atoms
33 bonds
52 angles
75 dihedrals
20 impropers

6 atom types
8 bond types
4 angle types
6 dihedral types
2 improper types

-4.766406250 3.792093750 xlo xhi
-4.756540625 5.894259375 ylo yhi
-2.657343750 3.590856250 zlo zhi

Masses

1   12.01100000  #  C_1  
2   12.01100000  #  C_3  
3   12.01100000  #  C_R  
4    1.00800000  #  H_   
5   14.00700000  #  N_1  
6   15.99900000  #  O_3  

Pair Coeffs  # lj/cut/coul/long

1         0.09510000      3.47299047 #  C_1  
2         0.09510000      3.47299047 #  C_3  
3         0.09510000      3.47299047 #  C_R  
4         0.01520000      2.84642140 #  H_   
5         0.07740000      3.26256020 #  N_1  
6         0.09570000      3.03315378 #  O_3  

Bond Coeffs  # harmonic

1      1050.00000000      1.14800000 #  C_1        N_1   
2       350.00000000      1.25200000 #  C_1        O_3   
3       350.00000000      1.53000000 #  C_3        C_3   
4       350.00000000      1.46000000 #  C_3        C_R   
5       350.00000000      1.09000000 #  H_         C_3   
6       525.00000000      1.39000000 #  C_R        C_R   
7       350.00000000      1.02000000 #  H_         C_R   
8       350.00000000      1.35000000 #  C_R        O_3   

Angle Coeffs  # harmonic

1        50.00000000    180.00000000 #  X         C_1          X   
2        50.00000000    109.47100000 #  X         C_3          X   
3        50.00000000    120.00000000 #  X         C_R          X   
4        50.00000000    104.51000000 #  X         O_3          X   

Dihedral Coeffs  # harmonic

1         1.00000000     1     3 #  X         C_3       C_3          X   
2         0.50000000    -1     6 #  X         C_R       C_3          X   
3         0.50000000    -1     6 #  X         C_R       C_3          X   
4        12.50000000    -1     2 #  X         C_R       C_R          X   
5         1.00000000     1     2 #  X         O_3       C_R          X   
6         0.00000000    -1     0 #  X         C_1       O_3          X   

Improper Coeffs  # umbrella

1        40.00000000      0.00000000 #  X         C_R        X         X       nb==3   
2         0.00000000      0.00000000 #  X         C_3        X         X       nb!=3   

Atoms # full

 1  1  2    0.004762    1.145693750    -0.126840625    -1.079543750      0    0    0 #  C_3/C
 2  1  3   -0.041144    0.094693750    -1.218540625    -0.962343750      0    0    0 #  C_R/C
 3  1  3   -0.056585    0.305693750    -2.383740625    -0.325543750      0    0    0 #  C_R/C
 4  1  3   -0.030742   -0.659206250    -3.312640625    -0.239943750      0    0    0 #  C_R/C
 5  1  3    0.095710   -1.877506250    -3.124740625    -0.779543750      0    0    0 #  C_R/C
 6  1  3   -0.030742   -2.083306250    -1.956040625    -1.413643750      0    0    0 #  C_R/C
 7  1  3   -0.056585   -1.122206250    -1.024240625    -1.501843750      0    0    0 #  C_R/C
 8  1  6   -0.233056   -2.857706250    -4.073840625    -0.687643750      0    0    0 #  O_3/0
 9  1  1    0.226147   -3.635006250    -3.860840625     0.475856250      0    0    0 #  C_1/C
10  1  5   -0.164608   -4.266406250    -3.677540625     1.431556250      0    0    0 #  N_1/N
11  1  3   -0.041144    0.735593750     1.055759375    -0.219343750      0    0    0 #  C_R/C
12  1  3   -0.056585    0.514893750     0.907859375     1.098356250      0    0    0 #  C_R/C
13  1  3   -0.030742    0.154493750     1.951159375     1.860856250      0    0    0 #  C_R/C
14  1  3    0.095710    0.002293750     3.185359375     1.345956250      0    0    0 #  C_R/C
15  1  3   -0.030742    0.226693750     3.324059375     0.026156250      0    0    0 #  C_R/C
16  1  3   -0.056585    0.587093750     2.285059375    -0.742643750      0    0    0 #  C_R/C
17  1  6   -0.233056   -0.364806250     4.247059375     2.125956250      0    0    0 #  O_3/0
18  1  1    0.226147    0.782793750     4.880959375     2.659056250      0    0    0 #  C_1/C
19  1  5   -0.164608    1.729293750     5.394259375     3.090856250      0    0    0 #  N_1/N
20  1  2   -0.055651    2.592593750    -0.535440625    -0.758043750      0    0    0 #  C_3/C
21  1  4    0.041489    1.149693750     0.176159375    -2.157343750      0    0    0 #  H_/H
22  1  4    0.063637    1.276093750    -2.601640625     0.146256250      0    0    0 #  H_/H
23  1  4    0.066111   -0.449206250    -4.256540625     0.291656250      0    0    0 #  H_/H
24  1  4    0.066111   -3.068006250    -1.757340625    -1.869743750      0    0    0 #  H_/H
25  1  4    0.063637   -1.342506250    -0.079640625    -2.027343750      0    0    0 #  H_/H
26  1  4    0.063637    0.628793750    -0.083140625     1.567856250      0    0    0 #  H_/H
27  1  4    0.066111   -0.020106250     1.792859375     2.938756250      0    0    0 #  H_/H
28  1  4    0.066111    0.112793750     4.319259375    -0.436443750      0    0    0 #  H_/H
29  1  4    0.063637    0.761693750     2.452559375    -1.818243750      0    0    0 #  H_/H
30  1  4    0.024540    3.292093750     0.309059375    -0.957843750      0    0    0 #  H_/H
31  1  4    0.024540    2.730693750    -0.817940625     0.309556250      0    0    0 #  H_/H
32  1  4    0.024540    2.922293750    -1.390740625    -1.391643750      0    0    0 #  H_/H

Bonds

  1   4     1     2  
  2   4     1    11  
  3   3     1    20  
  4   5    21     1  
  5   6     2     3  
  6   6     2     7  
  7   6     3     4  
  8   7    22     3  
  9   6     4     5  
 10   7    23     4  
 11   6     5     6  
 12   8     5     8  
 13   6     6     7  
 14   7    24     6  
 15   7    25     7  
 16   2     9     8  
 17   1     9    10  
 18   6    11    12  
 19   6    11    16  
 20   6    12    13  
 21   7    26    12  
 22   6    13    14  
 23   7    27    13  
 24   6    14    15  
 25   8    14    17  
 26   6    15    16  
 27   7    28    15  
 28   7    29    16  
 29   2    18    17  
 30   1    18    19  
 31   5    30    20  
 32   5    31    20  
 33   5    32    20  

Angles

  1   2     2     1    21  
  2   2     2     1    11  
  3   2     2     1    20  
  4   2    20     1    21  
  5   2    11     1    21  
  6   2    11     1    20  
  7   3     3     2     7  
  8   3     1     2     7  
  9   3     1     2     3  
 10   3     2     3    22  
 11   3     4     3    22  
 12   3     2     3     4  
 13   3     5     4    23  
 14   3     3     4     5  
 15   3     3     4    23  
 16   3     4     5     6  
 17   3     6     5     8  
 18   3     4     5     8  
 19   3     5     6     7  
 20   3     7     6    24  
 21   3     5     6    24  
 22   3     2     7    25  
 23   3     2     7     6  
 24   3     6     7    25  
 25   4     5     8     9  
 26   1     8     9    10  
 27   3     1    11    16  
 28   3    12    11    16  
 29   3     1    11    12  
 30   3    11    12    13  
 31   3    13    12    26  
 32   3    11    12    26  
 33   3    12    13    14  
 34   3    12    13    27  
 35   3    14    13    27  
 36   3    13    14    17  
 37   3    15    14    17  
 38   3    13    14    15  
 39   3    16    15    28  
 40   3    14    15    16  
 41   3    14    15    28  
 42   3    11    16    29  
 43   3    15    16    29  
 44   3    11    16    15  
 45   4    14    17    18  
 46   1    17    18    19  
 47   2     1    20    32  
 48   2    30    20    31  
 49   2     1    20    31  
 50   2    30    20    32  
 51   2    31    20    32  
 52   2     1    20    30  

Dihedrals

  1   1    21     1    20    32  
  2   2    12    11     1     2  
  3   1    11     1    20    32  
  4   1     2     1    20    30  
  5   1    21     1    20    31  
  6   1    11     1    20    31  
  7   1     2     1    20    32  
  8   1    21     1    20    30  
  9   1    11     1    20    30  
 10   2    16    11     1     2  
 11   1     2     1    20    31  
 12   3     7     2     1    11  
 13   3     7     2     1    20  
 14   4     3     2     7    25  
 15   4     1     2     3     4  
 16   3     3     2     1    21  
 17   4     1     2     3    22  
 18   4     3     2     7     6  
 19   3     3     2     1    11  
 20   4     1     2     7    25  
 21   3     3     2     1    20  
 22   4     7     2     3    22  
 23   4     1     2     7     6  
 24   3     7     2     1    21  
 25   4     4     3     2     7  
 26   4    22     3     4    23  
 27   4     2     3     4     5  
 28   4     2     3     4    23  
 29   4     5     4     3    22  
 30   4     3     4     5     6  
 31   4     3     4     5     8  
 32   4     8     5     6    24  
 33   5     9     8     5     4  
 34   4     8     5     4    23  
 35   4     4     5     6     7  
 36   4     4     5     6    24  
 37   5     9     8     5     6  
 38   4     6     5     4    23  
 39   4    24     6     7    25  
 40   4     5     6     7    25  
 41   4     7     6     5     8  
 42   4     2     7     6     5  
 43   4     2     7     6    24  
 44   6    10     9     8     5  
 45   4    12    11    16    29  
 46   3    16    11     1    20  
 47   4    16    11    12    26  
 48   4     1    11    16    15  
 49   4     1    11    12    26  
 50   3    12    11     1    21  
 51   4    12    11    16    15  
 52   4     1    11    16    29  
 53   4     1    11    12    13  
 54   3    16    11     1    21  
 55   3    12    11     1    20  
 56   4    13    12    11    16  
 57   4    26    12    13    27  
 58   4    11    12    13    27  
 59   4    11    12    13    14  
 60   4    12    13    14    15  
 61   4    14    13    12    26  
 62   4    12    13    14    17  
 63   4    17    14    15    28  
 64   5    18    17    14    15  
 65   4    17    14    13    27  
 66   4    13    14    15    16  
 67   4    13    14    15    28  
 68   5    18    17    14    13  
 69   4    15    14    13    27  
 70   4    16    15    14    17  
 71   4    28    15    16    29  
 72   4    14    15    16    29  
 73   4    11    16    15    28  
 74   4    11    16    15    14  
 75   6    19    18    17    14  

Impropers

  1   1     1     2     3     7  
  2   1     2     3     4    22  
  3   1     3     4     5    23  
  4   1     4     5     6     8  
  5   1     5     6     7    24  
  6   1     2     7     6    25  
  7   1     1    11    12    16  
  8   1    11    12    13    26  
  9   1    12    13    14    27  
 10   1    13    14    15    17  
 11   1    14    15    16    28  
 12   1    11    16    15    29  
 13   2     2     1    20    21  
 14   2     2     1    11    21  
 15   2    11     1    20    21  
 16   2     2     1    11    20  
 17   2     1    20    30    32  
 18   2     1    20    31    32  
 19   2    30    20    31    32  
 20   2     1    20    30    31  
