HEADER,  post1.mol2  read w/ mol2SYBYL2lmp > atom_typing v1.4 / 2 May 2023 w/DREIDING atom-types > all2lmp: v1.7 / 2 May 2023  Class: d

28 atoms
29 bonds
43 angles
58 dihedrals
13 impropers

8 atom types
9 bond types
5 angle types
6 dihedral types
2 improper types

-5.251610714 4.922689286 xlo xhi
-3.062200000 4.820200000 ylo yhi
-2.693796429 2.824903571 zlo zhi

Masses

1   12.01100000  #  C_1  
2   12.01100000  #  C_2  
3   12.01100000  #  C_3  
4   12.01100000  #  C_R  
5    1.00800000  #  H_   
6   14.00700000  #  N_1  
7   14.00700000  #  N_2  
8   15.99900000  #  O_3  

Pair Coeffs  # lj/cut/coul/long

1         0.09510000      3.47299047 #  C_1  
2         0.09510000      3.47299047 #  C_2  
3         0.09510000      3.47299047 #  C_3  
4         0.09510000      3.47299047 #  C_R  
5         0.01520000      2.84642140 #  H_   
6         0.07740000      3.26256020 #  N_1  
7         0.07740000      3.26256020 #  N_2  
8         0.09570000      3.03315378 #  O_3  

Bond Coeffs  # harmonic

1       700.00000000      1.20700000 #  C_1        N_2   
2       350.00000000      1.25200000 #  C_1        O_3   
3       700.00000000      1.21600000 #  C_2        N_1   
4       700.00000000      1.27500000 #  C_2        N_2   
5       350.00000000      1.32000000 #  C_2        O_3   
6       350.00000000      1.46000000 #  C_3        C_R   
7       525.00000000      1.39000000 #  C_R        C_R   
8       350.00000000      1.02000000 #  H_         C_R   
9       350.00000000      1.35000000 #  C_R        O_3   

Angle Coeffs  # harmonic

1        50.00000000    180.00000000 #  X         C_1          X   
2        50.00000000    120.00000000 #  X         C_2          X   
3        50.00000000    120.00000000 #  X         C_R          X   
4        50.00000000    120.00000000 #  X         N_2          X   
5        50.00000000    104.51000000 #  X         O_3          X   

Dihedral Coeffs  # harmonic

1        22.50000000    -1     2 #  X         C_2       N_2          X   
2        12.50000000    -1     2 #  X         C_R       C_R          X   
3         1.00000000     1     2 #  X         O_3       C_R          X   
4         0.00000000    -1     0 #  X         C_1       N_2          X   
5         0.00000000    -1     0 #  X         C_1       O_3          X   
6         0.00000000     1     0 #  X         O_3       C_2          X   

Improper Coeffs  # umbrella

1        40.00000000      0.00000000 #  X         C_2        X         X       nb==3   
2        40.00000000      0.00000000 #  X         C_R        X         X       nb==3   

Atoms # full

 1  1  4   -0.017228    0.315489286     3.164100000    -0.453296429      0    0    0 #  C_R/C
 2  1  4   -0.052507    0.850189286     1.919500000    -0.120796429      0    0    0 #  C_R/C
 3  1  4   -0.031172    0.001789286     0.849300000     0.163003571      0    0    0 #  C_R/C
 4  1  4    0.089313   -1.381210714     1.023800000     0.114403571      0    0    0 #  C_R/C
 5  1  4   -0.031172   -1.915910714     2.268400000    -0.217996429      0    0    0 #  C_R/C
 6  1  4   -0.052507   -1.067510714     3.338600000    -0.501896429      0    0    0 #  C_R/C
 7  1  8   -0.239387   -2.205310714    -0.015800000     0.390103571      0    0    0 #  O_3/O
 8  1  2    0.406347   -3.603410714     0.160600000     0.341003571      0    0    0 #  C_2/C
 9  1  6   -0.182397   -4.751610714     0.305400000     0.300603571      0    0    0 #  N_1/N
10  1  5    0.066091    0.423389286    -0.132300000     0.425103571      0    0    0 #  H_/H
11  1  5    0.063986    1.940889286     1.782000000    -0.082396429      0    0    0 #  H_/H
12  1  5    0.066091   -3.006610714     2.406000000    -0.256296429      0    0    0 #  H_/H
13  1  5    0.063986   -1.489210714     4.320200000    -0.764096429      0    0    0 #  H_/H
14  1  4   -0.017227    2.967789286    -1.655700000    -0.055996429      0    0    0 #  C_R/C
15  1  4   -0.052477    2.197989286    -1.878400000    -1.197696429      0    0    0 #  C_R/C
16  1  4   -0.030423    0.842389286    -2.183500000    -1.076096429      0    0    0 #  C_R/C
17  1  4    0.095581    0.256589286    -2.265900000     0.187103571      0    0    0 #  C_R/C
18  1  4   -0.030423    1.026389286    -2.043300000     1.328703571      0    0    0 #  C_R/C
19  1  4   -0.052477    2.381989286    -1.738100000     1.207103571      0    0    0 #  C_R/C
20  1  8   -0.236205   -1.060310714    -2.562200000     0.305103571      0    0    0 #  O_3/O
21  1  1    0.190135   -2.017510714    -1.527000000     0.318003571      0    0    0 #  C_1/C
22  1  7   -0.273319   -2.803610714    -0.676800000     0.328603571      0    0    0 #  N_2/N
23  1  5    0.066122    0.235189286    -2.359100000    -1.976396429      0    0    0 #  H_/H
24  1  5    0.063986    2.659989286    -1.813500000    -2.193796429      0    0    0 #  H_/H
25  1  5    0.066122    0.564389286    -2.108300000     2.324903571      0    0    0 #  H_/H
26  1  5    0.063986    2.989089286    -1.562500000     2.107503571      0    0    0 #  H_/H
27  1  3   -0.001413    1.225989286     4.312700000    -0.757996429      0    0    0 #  C_3/C
28  1  3   -0.001413    4.422689286    -1.328200000    -0.186496429      0    0    0 #  C_3/C

Bonds

  1   7     1     2  
  2   7     1     6  
  3   6    27     1  
  4   7     2     3  
  5   8    11     2  
  6   7     3     4  
  7   8    10     3  
  8   7     4     5  
  9   9     4     7  
 10   7     5     6  
 11   8    12     5  
 12   8    13     6  
 13   5     8     7  
 14   3     8     9  
 15   4     8    22  
 16   7    14    15  
 17   7    14    19  
 18   6    28    14  
 19   7    15    16  
 20   8    24    15  
 21   7    16    17  
 22   8    23    16  
 23   7    17    18  
 24   9    17    20  
 25   7    18    19  
 26   8    25    18  
 27   8    26    19  
 28   2    21    20  
 29   1    21    22  

Angles

  1   3     2     1     6  
  2   3     2     1    27  
  3   3     6     1    27  
  4   3     1     2    11  
  5   3     1     2     3  
  6   3     3     2    11  
  7   3     4     3    10  
  8   3     2     3     4  
  9   3     2     3    10  
 10   3     3     4     7  
 11   3     5     4     7  
 12   3     3     4     5  
 13   3     4     5     6  
 14   3     4     5    12  
 15   3     6     5    12  
 16   3     1     6     5  
 17   3     5     6    13  
 18   3     1     6    13  
 19   5     4     7     8  
 20   2     7     8    22  
 21   2     7     8     9  
 22   2     9     8    22  
 23   3    19    14    28  
 24   3    15    14    19  
 25   3    15    14    28  
 26   3    14    15    24  
 27   3    14    15    16  
 28   3    16    15    24  
 29   3    17    16    23  
 30   3    15    16    17  
 31   3    15    16    23  
 32   3    16    17    20  
 33   3    18    17    20  
 34   3    16    17    18  
 35   3    17    18    19  
 36   3    17    18    25  
 37   3    19    18    25  
 38   3    14    19    18  
 39   3    18    19    26  
 40   3    14    19    26  
 41   5    17    20    21  
 42   1    20    21    22  
 43   4     8    22    21  

Dihedrals

  1   2     2     1     6    13  
  2   2     6     1     2    11  
  3   2     2     1     6     5  
  4   2     3     2     1     6  
  5   2     1     2     3     4  
  6   2     3     2     1    27  
  7   2     1     2     3    10  
  8   2    11     2     1    27  
  9   2     2     3     4     5  
 10   2    10     3     2    11  
 11   2     2     3     4     7  
 12   2     4     3     2    11  
 13   2     5     4     3    10  
 14   2     7     4     5    12  
 15   2     3     4     5     6  
 16   2     3     4     5    12  
 17   2     7     4     3    10  
 18   3     8     7     4     5  
 19   3     8     7     4     3  
 20   2     4     5     6    13  
 21   2     6     5     4     7  
 22   2    12     5     6    13  
 23   2     1     6     5     4  
 24   2     1     6     5    12  
 25   2    13     6     1    27  
 26   2     5     6     1    27  
 27   6     4     7     8    22  
 28   6     4     7     8     9  
 29   1     9     8    22    21  
 30   1     7     8    22    21  
 31   2    15    14    19    18  
 32   2    15    14    19    26  
 33   2    19    14    15    24  
 34   2    16    15    14    19  
 35   2    16    15    14    28  
 36   2    14    15    16    17  
 37   2    14    15    16    23  
 38   2    24    15    14    28  
 39   2    15    16    17    20  
 40   2    17    16    15    24  
 41   2    15    16    17    18  
 42   2    23    16    15    24  
 43   2    20    17    18    25  
 44   3    21    20    17    18  
 45   3    21    20    17    16  
 46   2    18    17    16    23  
 47   2    20    17    16    23  
 48   2    16    17    18    19  
 49   2    16    17    18    25  
 50   2    17    18    19    26  
 51   2    19    18    17    20  
 52   2    25    18    19    26  
 53   2    18    19    14    28  
 54   2    14    19    18    17  
 55   2    26    19    14    28  
 56   2    14    19    18    25  
 57   5    22    21    20    17  
 58   4    20    21    22     8  

Impropers

  1   2     2     1     6    27  
  2   2     1     2     3    11  
  3   2     2     3     4    10  
  4   2     3     4     5     7  
  5   2     4     5     6    12  
  6   2     1     6     5    13  
  7   1     7     8     9    22  
  8   2    15    14    19    28  
  9   2    14    15    16    24  
 10   2    15    16    17    23  
 11   2    16    17    18    20  
 12   2    17    18    19    25  
 13   2    14    19    18    26  
