HEADER,  post2.mol2  read w/ mol2SYBYL2lmp > atom_typing v1.4 / 2 May 2023 w/DREIDING atom-types > all2lmp: v1.7 / 2 May 2023  Class: d

42 atoms
45 bonds
69 angles
96 dihedrals
21 impropers

5 atom types
5 bond types
3 angle types
5 dihedral types
1 improper types

-6.224000000 8.221100000 xlo xhi
-2.572702381 3.148697619 ylo yhi
-3.721797619 3.843702381 zlo zhi

Masses

1   12.01100000  #  C_3  
2   12.01100000  #  C_R  
3    1.00800000  #  H_   
4   14.00700000  #  N_R  
5   15.99900000  #  O_3  

Pair Coeffs  # lj/cut/coul/long

1         0.09510000      3.47299047 #  C_3  
2         0.09510000      3.47299047 #  C_R  
3         0.01520000      2.84642140 #  H_   
4         0.07740000      3.26256020 #  N_R  
5         0.09570000      3.03315378 #  O_3  

Bond Coeffs  # harmonic

1       350.00000000      1.46000000 #  C_3        C_R   
2       525.00000000      1.39000000 #  C_R        C_R   
3       350.00000000      1.02000000 #  H_         C_R   
4       525.00000000      1.34000000 #  C_R        N_R   
5       350.00000000      1.35000000 #  C_R        O_3   

Angle Coeffs  # harmonic

1        50.00000000    120.00000000 #  X         C_R          X   
2        50.00000000    120.00000000 #  X         N_R          X   
3        50.00000000    104.51000000 #  X         O_3          X   

Dihedral Coeffs  # harmonic

1        12.50000000    -1     2 #  X         C_R       C_R          X   
2        12.50000000    -1     2 #  X         C_R       N_R          X   
3         1.00000000     1     2 #  X         O_3       C_R          X   
4        12.50000000    -1     2 #  X         N_R       C_R          X   
5         1.00000000     1     2 #  X         O_3       C_R          X   

Improper Coeffs  # umbrella

1        40.00000000      0.00000000 #  X         C_R        X         X       nb==3   

Atoms # full

 1  1  2   -0.017228    6.095700000     1.492597619    -0.388297619      0    0    0 #  C_R/C
 2  1  2   -0.052509    6.630400000     0.247997619    -0.055797619      0    0    0 #  C_R/C
 3  1  2   -0.031293    5.782000000    -0.822202381     0.228002381      0    0    0 #  C_R/C
 4  1  2    0.086045    4.399000000    -0.647702381     0.179402381      0    0    0 #  C_R/C
 5  1  2   -0.031293    3.864300000     0.596897619    -0.152997619      0    0    0 #  C_R/C
 6  1  2   -0.052509    4.712700000     1.667097619    -0.436897619      0    0    0 #  C_R/C
 7  1  5   -0.270306    3.574900000    -1.687302381     0.455102381      0    0    0 #  O_3/O
 8  1  2    0.266549    2.268900000    -1.338802381     0.360302381      0    0    0 #  C_R/C
 9  1  4   -0.156191    1.615000000    -1.131602381     1.502302381      0    0    0 #  N_R/N
10  1  3    0.066089    6.203700000    -1.803802381     0.490102381      0    0    0 #  H_/H
11  1  3    0.063986    7.721100000     0.110397619    -0.017397619      0    0    0 #  H_/H
12  1  3    0.066089    2.773600000     0.734497619    -0.191297619      0    0    0 #  H_/H
13  1  3    0.063986    4.291100000     2.648697619    -0.699097619      0    0    0 #  H_/H
14  1  2   -0.017228   -4.099700000     0.313197619    -1.818297619      0    0    0 #  C_R/C
15  1  2   -0.052509   -3.734400000    -0.817402381    -2.548797619      0    0    0 #  C_R/C
16  1  2   -0.031293   -2.391200000    -1.181102381    -2.645697619      0    0    0 #  C_R/C
17  1  2    0.086045   -1.413600000    -0.414102381    -2.012097619      0    0    0 #  C_R/C
18  1  2   -0.031293   -1.778900000     0.716497619    -1.281597619      0    0    0 #  C_R/C
19  1  2   -0.052509   -3.122100000     1.080197619    -1.184597619      0    0    0 #  C_R/C
20  1  5   -0.270306   -0.108900000    -0.767402381    -2.106197619      0    0    0 #  O_3/O
21  1  2    0.266549    0.472900000    -0.890302381    -0.888597619      0    0    0 #  C_R/C
22  1  4   -0.156191    1.759300000    -1.235502381    -0.866397619      0    0    0 #  N_R/N
23  1  3    0.066089   -2.103000000    -2.072702381    -3.221797619      0    0    0 #  H_/H
24  1  3    0.063986   -4.505400000    -1.422202381    -3.048597619      0    0    0 #  H_/H
25  1  3    0.066089   -1.007900000     1.321397619    -0.781897619      0    0    0 #  H_/H
26  1  3    0.063986   -3.410300000     1.971797619    -0.608497619      0    0    0 #  H_/H
27  1  1   -0.001413    7.006200000     2.641097619    -0.692997619      0    0    0 #  C_3/C
28  1  1   -0.001413   -5.541200000     0.703497619    -1.714197619      0    0    0 #  C_3/C
29  1  2   -0.017228   -4.307900000     0.463297619     1.598402381      0    0    0 #  C_R/C
30  1  2   -0.052509   -3.532600000     1.289397619     2.411902381      0    0    0 #  C_R/C
31  1  2   -0.031293   -2.213100000     0.942597619     2.702202381      0    0    0 #  C_R/C
32  1  2    0.086045   -1.669000000    -0.230302381     2.179002381      0    0    0 #  C_R/C
33  1  2   -0.031293   -2.444300000    -1.056402381     1.365502381      0    0    0 #  C_R/C
34  1  2   -0.052509   -3.763900000    -0.709602381     1.075102381      0    0    0 #  C_R/C
35  1  5   -0.270306   -0.387200000    -0.567102381     2.461002381      0    0    0 #  O_3/O
36  1  2    0.266549    0.337100000    -0.792602381     1.338302381      0    0    0 #  C_R/C
37  1  4   -0.156191   -0.295400000    -0.654502381     0.174002381      0    0    0 #  N_R/N
38  1  3    0.066089   -1.601600000     1.594197619     3.343702381      0    0    0 #  H_/H
39  1  3    0.063986   -3.961800000     2.214397619     2.824602381      0    0    0 #  H_/H
40  1  3    0.066089   -2.015200000    -1.981502381     0.952902381      0    0    0 #  H_/H
41  1  3    0.063986   -4.375300000    -1.361102381     0.433502381      0    0    0 #  H_/H
42  1  1   -0.001413   -5.724000000     0.835497619     1.286702381      0    0    0 #  C_3/C

Bonds

  1   2     1     2  
  2   2     1     6  
  3   1    27     1  
  4   2     2     3  
  5   3    11     2  
  6   2     3     4  
  7   3    10     3  
  8   2     4     5  
  9   5     4     7  
 10   2     5     6  
 11   3    12     5  
 12   3    13     6  
 13   5     8     7  
 14   4     8     9  
 15   4     8    22  
 16   4    36     9  
 17   2    14    15  
 18   2    14    19  
 19   1    28    14  
 20   2    15    16  
 21   3    24    15  
 22   2    16    17  
 23   3    23    16  
 24   2    17    18  
 25   5    17    20  
 26   2    18    19  
 27   3    25    18  
 28   3    26    19  
 29   5    21    20  
 30   4    21    22  
 31   4    21    37  
 32   2    29    30  
 33   2    29    34  
 34   1    42    29  
 35   2    30    31  
 36   3    39    30  
 37   2    31    32  
 38   3    38    31  
 39   2    32    33  
 40   5    32    35  
 41   2    33    34  
 42   3    40    33  
 43   3    41    34  
 44   5    36    35  
 45   4    36    37  

Angles

  1   1     2     1     6  
  2   1     2     1    27  
  3   1     6     1    27  
  4   1     1     2    11  
  5   1     1     2     3  
  6   1     3     2    11  
  7   1     4     3    10  
  8   1     2     3     4  
  9   1     2     3    10  
 10   1     3     4     7  
 11   1     5     4     7  
 12   1     3     4     5  
 13   1     4     5     6  
 14   1     4     5    12  
 15   1     6     5    12  
 16   1     1     6     5  
 17   1     5     6    13  
 18   1     1     6    13  
 19   3     4     7     8  
 20   1     7     8    22  
 21   1     7     8     9  
 22   1     9     8    22  
 23   2     8     9    36  
 24   1    19    14    28  
 25   1    15    14    19  
 26   1    15    14    28  
 27   1    14    15    24  
 28   1    14    15    16  
 29   1    16    15    24  
 30   1    17    16    23  
 31   1    15    16    17  
 32   1    15    16    23  
 33   1    16    17    20  
 34   1    18    17    20  
 35   1    16    17    18  
 36   1    17    18    19  
 37   1    17    18    25  
 38   1    19    18    25  
 39   1    14    19    18  
 40   1    18    19    26  
 41   1    14    19    26  
 42   3    17    20    21  
 43   1    20    21    22  
 44   1    20    21    37  
 45   1    22    21    37  
 46   2     8    22    21  
 47   1    30    29    34  
 48   1    34    29    42  
 49   1    30    29    42  
 50   1    29    30    31  
 51   1    29    30    39  
 52   1    31    30    39  
 53   1    30    31    32  
 54   1    32    31    38  
 55   1    30    31    38  
 56   1    31    32    35  
 57   1    33    32    35  
 58   1    31    32    33  
 59   1    34    33    40  
 60   1    32    33    34  
 61   1    32    33    40  
 62   1    29    34    41  
 63   1    33    34    41  
 64   1    29    34    33  
 65   3    32    35    36  
 66   1     9    36    37  
 67   1    35    36    37  
 68   1     9    36    35  
 69   2    21    37    36  

Dihedrals

  1   1     2     1     6    13  
  2   1     2     1     6     5  
  3   1     6     1     2    11  
  4   1     1     2     3     4  
  5   1     3     2     1    27  
  6   1     3     2     1     6  
  7   1     1     2     3    10  
  8   1    11     2     1    27  
  9   1    10     3     2    11  
 10   1     4     3     2    11  
 11   1     2     3     4     5  
 12   1     2     3     4     7  
 13   1     7     4     5    12  
 14   1     3     4     5     6  
 15   3     8     7     4     5  
 16   3     8     7     4     3  
 17   1     5     4     3    10  
 18   1     3     4     5    12  
 19   1     7     4     3    10  
 20   1     6     5     4     7  
 21   1    12     5     6    13  
 22   1     4     5     6    13  
 23   1     1     6     5    12  
 24   1    13     6     1    27  
 25   1     1     6     5     4  
 26   1     5     6     1    27  
 27   5     4     7     8     9  
 28   5     4     7     8    22  
 29   2     9     8    22    21  
 30   2    22     8     9    36  
 31   2     7     8    22    21  
 32   2     7     8     9    36  
 33   4     8     9    36    35  
 34   4     8     9    36    37  
 35   1    15    14    19    26  
 36   1    15    14    19    18  
 37   1    19    14    15    24  
 38   1    14    15    16    17  
 39   1    14    15    16    23  
 40   1    16    15    14    19  
 41   1    16    15    14    28  
 42   1    24    15    14    28  
 43   1    15    16    17    20  
 44   1    17    16    15    24  
 45   1    15    16    17    18  
 46   1    23    16    15    24  
 47   1    16    17    18    19  
 48   3    21    20    17    18  
 49   3    21    20    17    16  
 50   1    16    17    18    25  
 51   1    18    17    16    23  
 52   1    20    17    16    23  
 53   1    20    17    18    25  
 54   1    25    18    19    26  
 55   1    17    18    19    26  
 56   1    19    18    17    20  
 57   1    14    19    18    25  
 58   1    26    19    14    28  
 59   1    18    19    14    28  
 60   1    14    19    18    17  
 61   5    17    20    21    22  
 62   5    17    20    21    37  
 63   2    20    21    37    36  
 64   2    22    21    37    36  
 65   4     8    22    21    37  
 66   4     8    22    21    20  
 67   1    34    29    30    39  
 68   1    30    29    34    41  
 69   1    30    29    34    33  
 70   1    31    30    29    42  
 71   1    29    30    31    32  
 72   1    39    30    29    42  
 73   1    29    30    31    38  
 74   1    31    30    29    34  
 75   1    30    31    32    33  
 76   1    38    31    30    39  
 77   1    30    31    32    35  
 78   1    32    31    30    39  
 79   3    36    35    32    31  
 80   1    31    32    33    40  
 81   1    33    32    31    38  
 82   1    35    32    31    38  
 83   1    35    32    33    40  
 84   3    36    35    32    33  
 85   1    31    32    33    34  
 86   1    40    33    34    41  
 87   1    32    33    34    41  
 88   1    34    33    32    35  
 89   1    33    34    29    42  
 90   1    29    34    33    40  
 91   1    41    34    29    42  
 92   1    29    34    33    32  
 93   5    32    35    36    37  
 94   3    32    35    36     9  
 95   2     9    36    37    21  
 96   4    21    37    36    35  

Impropers

  1   1     2     1     6    27  
  2   1     1     2     3    11  
  3   1     2     3     4    10  
  4   1     3     4     5     7  
  5   1     4     5     6    12  
  6   1     1     6     5    13  
  7   1     7     8     9    22  
  8   1    15    14    19    28  
  9   1    14    15    16    24  
 10   1    15    16    17    23  
 11   1    16    17    18    20  
 12   1    17    18    19    25  
 13   1    14    19    18    26  
 14   1    20    21    22    37  
 15   1    30    29    34    42  
 16   1    29    30    31    39  
 17   1    30    31    32    38  
 18   1    31    32    33    35  
 19   1    32    33    34    40  
 20   1    29    34    33    41  
 21   1     9    36    35    37  
