HEADER,  pre1.mol2  read w/ mol2SYBYL2lmp > atom_typing v1.4 / 2 May 2023 w/DREIDING atom-types > all2lmp: v1.7 / 2 May 2023  Class: d

28 atoms
28 bonds
40 angles
54 dihedrals
12 impropers

6 atom types
6 bond types
3 angle types
3 dihedral types
1 improper types

-8.800503571 8.084496429 xlo xhi
-2.468192857 2.984307143 ylo yhi
-1.162621429 1.026578571 zlo zhi

Masses

1   12.01100000  #  C_1  
2   12.01100000  #  C_3  
3   12.01100000  #  C_R  
4    1.00800000  #  H_   
5   14.00700000  #  N_1  
6   15.99900000  #  O_3  

Pair Coeffs  # lj/cut/coul/long

1         0.09510000      3.47299047 #  C_1  
2         0.09510000      3.47299047 #  C_3  
3         0.09510000      3.47299047 #  C_R  
4         0.01520000      2.84642140 #  H_   
5         0.07740000      3.26256020 #  N_1  
6         0.09570000      3.03315378 #  O_3  

Bond Coeffs  # harmonic

1      1050.00000000      1.14800000 #  C_1        N_1   
2       350.00000000      1.25200000 #  C_1        O_3   
3       350.00000000      1.46000000 #  C_3        C_R   
4       525.00000000      1.39000000 #  C_R        C_R   
5       350.00000000      1.02000000 #  H_         C_R   
6       350.00000000      1.35000000 #  C_R        O_3   

Angle Coeffs  # harmonic

1        50.00000000    180.00000000 #  X         C_1          X   
2        50.00000000    120.00000000 #  X         C_R          X   
3        50.00000000    104.51000000 #  X         O_3          X   

Dihedral Coeffs  # harmonic

1        12.50000000    -1     2 #  X         C_R       C_R          X   
2         1.00000000     1     2 #  X         O_3       C_R          X   
3         0.00000000    -1     0 #  X         C_1       O_3          X   

Improper Coeffs  # umbrella

1        40.00000000      0.00000000 #  X         C_R        X         X       nb==3   

Atoms # full

 1  1  3   -0.017227   -3.233403571     1.328207143    -0.351821429      0    0    0 #  C_R/C
 2  1  3   -0.052477   -2.698703571     0.083607143    -0.019321429      0    0    0 #  C_R/C
 3  1  3   -0.030420   -3.547103571    -0.986592857     0.264478571      0    0    0 #  C_R/C
 4  1  3    0.095733   -4.930103571    -0.812092857     0.215878571      0    0    0 #  C_R/C
 5  1  3   -0.030420   -5.464803571     0.432507143    -0.116521429      0    0    0 #  C_R/C
 6  1  3   -0.052477   -4.616403571     1.502707143    -0.400421429      0    0    0 #  C_R/C
 7  1  6   -0.233056   -5.754203571    -1.851692857     0.491578571      0    0    0 #  O_3/O
 8  1  1    0.226147   -7.152303571    -1.675292857     0.442478571      0    0    0 #  C_1/C
 9  1  5   -0.164608   -8.300503571    -1.530492857     0.402078571      0    0    0 #  N_1/N
10  1  4    0.066122   -3.125503571    -1.968192857     0.526578571      0    0    0 #  H_/H
11  1  4    0.063986   -1.608003571    -0.053892857     0.019078571      0    0    0 #  H_/H
12  1  4    0.066122   -6.555503571     0.570107143    -0.154821429      0    0    0 #  H_/H
13  1  4    0.063986   -5.038003571     2.484307143    -0.662621429      0    0    0 #  H_/H
14  1  2   -0.001413   -2.322903571     2.476807143    -0.656621429      0    0    0 #  C_3/C
15  2  3   -0.017227    5.959096429     1.328207143    -0.351821429      0    0    0 #  C_R/C
16  2  3   -0.052477    6.493796429     0.083607143    -0.019321429      0    0    0 #  C_R/C
17  2  3   -0.030420    5.645396429    -0.986592857     0.264478571      0    0    0 #  C_R/C
18  2  3    0.095733    4.262396429    -0.812092857     0.215878571      0    0    0 #  C_R/C
19  2  3   -0.030420    3.727696429     0.432507143    -0.116521429      0    0    0 #  C_R/C
20  2  3   -0.052477    4.576096429     1.502707143    -0.400421429      0    0    0 #  C_R/C
21  2  6   -0.233056    3.438296429    -1.851692857     0.491578571      0    0    0 #  O_3/O
22  2  1    0.226147    2.040196429    -1.675292857     0.442478571      0    0    0 #  C_1/C
23  2  5   -0.164608    0.891996429    -1.530492857     0.402078571      0    0    0 #  N_1/N
24  2  4    0.066122    6.066996429    -1.968192857     0.526578571      0    0    0 #  H_/H
25  2  4    0.063986    7.584496429    -0.053892857     0.019078571      0    0    0 #  H_/H
26  2  4    0.066122    2.636996429     0.570107143    -0.154821429      0    0    0 #  H_/H
27  2  4    0.063986    4.154396429     2.484307143    -0.662621429      0    0    0 #  H_/H
28  2  2   -0.001413    6.869596429     2.476807143    -0.656621429      0    0    0 #  C_3/C

Bonds

  1   4     1     2  
  2   4     1     6  
  3   3    14     1  
  4   4     2     3  
  5   5    11     2  
  6   4     3     4  
  7   5    10     3  
  8   4     4     5  
  9   6     4     7  
 10   4     5     6  
 11   5    12     5  
 12   5    13     6  
 13   2     8     7  
 14   1     8     9  
 15   4    15    16  
 16   4    15    20  
 17   3    28    15  
 18   4    16    17  
 19   5    25    16  
 20   4    17    18  
 21   5    24    17  
 22   4    18    19  
 23   6    18    21  
 24   4    19    20  
 25   5    26    19  
 26   5    27    20  
 27   2    22    21  
 28   1    22    23  

Angles

  1   2     2     1     6  
  2   2     6     1    14  
  3   2     2     1    14  
  4   2     1     2    11  
  5   2     1     2     3  
  6   2     3     2    11  
  7   2     4     3    10  
  8   2     2     3     4  
  9   2     2     3    10  
 10   2     3     4     7  
 11   2     5     4     7  
 12   2     3     4     5  
 13   2     4     5     6  
 14   2     4     5    12  
 15   2     6     5    12  
 16   2     1     6     5  
 17   2     5     6    13  
 18   2     1     6    13  
 19   3     4     7     8  
 20   1     7     8     9  
 21   2    16    15    20  
 22   2    16    15    28  
 23   2    20    15    28  
 24   2    15    16    25  
 25   2    15    16    17  
 26   2    17    16    25  
 27   2    16    17    18  
 28   2    16    17    24  
 29   2    18    17    24  
 30   2    19    18    21  
 31   2    17    18    19  
 32   2    17    18    21  
 33   2    18    19    20  
 34   2    18    19    26  
 35   2    20    19    26  
 36   2    15    20    19  
 37   2    19    20    27  
 38   2    15    20    27  
 39   3    18    21    22  
 40   1    21    22    23  

Dihedrals

  1   1     6     1     2    11  
  2   1     2     1     6    13  
  3   1     2     1     6     5  
  4   1     3     2     1     6  
  5   1     1     2     3     4  
  6   1     1     2     3    10  
  7   1    11     2     1    14  
  8   1     3     2     1    14  
  9   1     2     3     4     5  
 10   1    10     3     2    11  
 11   1     2     3     4     7  
 12   1     4     3     2    11  
 13   1     5     4     3    10  
 14   1     7     4     5    12  
 15   1     3     4     5     6  
 16   1     3     4     5    12  
 17   1     7     4     3    10  
 18   2     8     7     4     5  
 19   2     8     7     4     3  
 20   1     4     5     6    13  
 21   1     6     5     4     7  
 22   1    12     5     6    13  
 23   1     1     6     5     4  
 24   1     1     6     5    12  
 25   1     5     6     1    14  
 26   1    13     6     1    14  
 27   3     9     8     7     4  
 28   1    20    15    16    25  
 29   1    16    15    20    27  
 30   1    16    15    20    19  
 31   1    25    16    15    28  
 32   1    17    16    15    20  
 33   1    15    16    17    18  
 34   1    15    16    17    24  
 35   1    17    16    15    28  
 36   1    16    17    18    21  
 37   1    24    17    16    25  
 38   1    18    17    16    25  
 39   1    16    17    18    19  
 40   2    22    21    18    19  
 41   1    17    18    19    20  
 42   1    17    18    19    26  
 43   1    19    18    17    24  
 44   1    21    18    17    24  
 45   2    22    21    18    17  
 46   1    21    18    19    26  
 47   1    26    19    20    27  
 48   1    20    19    18    21  
 49   1    18    19    20    27  
 50   1    27    20    15    28  
 51   1    15    20    19    18  
 52   1    19    20    15    28  
 53   1    15    20    19    26  
 54   3    23    22    21    18  

Impropers

  1   1     2     1     6    14  
  2   1     1     2     3    11  
  3   1     2     3     4    10  
  4   1     3     4     5     7  
  5   1     4     5     6    12  
  6   1     1     6     5    13  
  7   1    16    15    20    28  
  8   1    15    16    17    25  
  9   1    16    17    18    24  
 10   1    17    18    19    21  
 11   1    18    19    20    26  
 12   1    15    20    19    27  
