HEADER,  pre2.mol2  read w/ mol2SYBYL2lmp > atom_typing v1.4 / 2 May 2023 w/DREIDING atom-types > all2lmp: v1.7 / 2 May 2023  Class: d

42 atoms
43 bonds
63 angles
85 dihedrals
19 impropers

8 atom types
10 bond types
5 angle types
6 dihedral types
2 improper types

-8.923892857 10.606407143 xlo xhi
-3.180895238 4.374904762 ylo yhi
-2.441997619 2.921702381 zlo zhi

Masses

1   12.01100000  #  C_1  
2   12.01100000  #  C_2  
3   12.01100000  #  C_3  
4   12.01100000  #  C_R  
5    1.00800000  #  H_   
6   14.00700000  #  N_1  
7   14.00700000  #  N_2  
8   15.99900000  #  O_3  

Pair Coeffs  # lj/cut/coul/long

1         0.09510000      3.47299047 #  C_1  
2         0.09510000      3.47299047 #  C_2  
3         0.09510000      3.47299047 #  C_3  
4         0.09510000      3.47299047 #  C_R  
5         0.01520000      2.84642140 #  H_   
6         0.07740000      3.26256020 #  N_1  
7         0.07740000      3.26256020 #  N_2  
8         0.09570000      3.03315378 #  O_3  

Bond Coeffs  # harmonic

1      1050.00000000      1.14800000 #  C_1        N_1   
2       700.00000000      1.20700000 #  C_1        N_2   
3       350.00000000      1.25200000 #  C_1        O_3   
4       700.00000000      1.21600000 #  C_2        N_1   
5       700.00000000      1.27500000 #  C_2        N_2   
6       350.00000000      1.32000000 #  C_2        O_3   
7       350.00000000      1.46000000 #  C_3        C_R   
8       525.00000000      1.39000000 #  C_R        C_R   
9       350.00000000      1.02000000 #  H_         C_R   
10      350.00000000      1.35000000 #  C_R        O_3   

Angle Coeffs  # harmonic

1        50.00000000    180.00000000 #  X         C_1          X   
2        50.00000000    120.00000000 #  X         C_2          X   
3        50.00000000    120.00000000 #  X         C_R          X   
4        50.00000000    120.00000000 #  X         N_2          X   
5        50.00000000    104.51000000 #  X         O_3          X   

Dihedral Coeffs  # harmonic

1        22.50000000    -1     2 #  X         C_2       N_2          X   
2        12.50000000    -1     2 #  X         C_R       C_R          X   
3         1.00000000     1     2 #  X         O_3       C_R          X   
4         0.00000000    -1     0 #  X         C_1       N_2          X   
5         0.00000000    -1     0 #  X         C_1       O_3          X   
6         0.00000000     1     0 #  X         O_3       C_2          X   

Improper Coeffs  # umbrella

1        40.00000000      0.00000000 #  X         C_2        X         X       nb==3   
2        40.00000000      0.00000000 #  X         C_R        X         X       nb==3   

Atoms # full

 1  1  4   -0.017228   -3.356792857     2.718804762    -0.476197619      0    0    0 #  C_R/C
 2  1  4   -0.052507   -2.822092857     1.474204762    -0.143697619      0    0    0 #  C_R/C
 3  1  4   -0.031172   -3.670492857     0.404004762     0.140102381      0    0    0 #  C_R/C
 4  1  4    0.089313   -5.053492857     0.578504762     0.091502381      0    0    0 #  C_R/C
 5  1  4   -0.031172   -5.588192857     1.823104762    -0.240897619      0    0    0 #  C_R/C
 6  1  4   -0.052507   -4.739792857     2.893304762    -0.524797619      0    0    0 #  C_R/C
 7  1  8   -0.239387   -5.877592857    -0.461095238     0.367202381      0    0    0 #  O_3/O
 8  1  2    0.406347   -7.275692857    -0.284795238     0.318102381      0    0    0 #  C_2/C
 9  1  6   -0.182397   -8.423892857    -0.139895238     0.277802381      0    0    0 #  N_1/N
10  1  5    0.066091   -3.248892857    -0.577595238     0.402202381      0    0    0 #  H_/H
11  1  5    0.063986   -1.731392857     1.336604762    -0.105297619      0    0    0 #  H_/H
12  1  5    0.066091   -6.678892857     1.960704762    -0.279197619      0    0    0 #  H_/H
13  1  5    0.063986   -5.161392857     3.874904762    -0.786997619      0    0    0 #  H_/H
14  1  4   -0.017227   -0.502592857    -1.342595238     0.215702381      0    0    0 #  C_R/C
15  1  4   -0.052477   -1.143092857    -1.559995238     1.435602381      0    0    0 #  C_R/C
16  1  4   -0.030423   -2.462992857    -2.010395238     1.459702381      0    0    0 #  C_R/C
17  1  4    0.095581   -3.142392857    -2.243295238     0.264002381      0    0    0 #  C_R/C
18  1  4   -0.030423   -2.501992857    -2.025795238    -0.955897619      0    0    0 #  C_R/C
19  1  4   -0.052477   -1.181992857    -1.575395238    -0.979997619      0    0    0 #  C_R/C
20  1  8   -0.236205   -4.424592857    -2.680895238     0.287402381      0    0    0 #  O_3/O
21  1  1    0.190135   -5.486092857    -1.752895238     0.298602381      0    0    0 #  C_1/C
22  1  7   -0.273319   -6.357892857    -0.990795238     0.307802381      0    0    0 #  N_2/N
23  1  5    0.066122   -2.968092857    -2.181995238     2.421702381      0    0    0 #  H_/H
24  1  5    0.063986   -0.607292857    -1.376195238     2.378502381      0    0    0 #  H_/H
25  1  5    0.066122   -3.037792857    -2.209495238    -1.898797619      0    0    0 #  H_/H
26  1  5    0.063986   -0.676892857    -1.403895238    -1.941997619      0    0    0 #  H_/H
27  1  3   -0.001413   -2.446292857     3.867404762    -0.780897619      0    0    0 #  C_3/C
28  1  3   -0.001413    0.914007143    -0.859195238     0.189802381      0    0    0 #  C_3/C
29  2  4   -0.017227    8.481007143     1.667104762    -0.476197619      0    0    0 #  C_R/C
30  2  4   -0.052477    9.015707143     0.422504762    -0.143697619      0    0    0 #  C_R/C
31  2  4   -0.030420    8.167307143    -0.647695238     0.140102381      0    0    0 #  C_R/C
32  2  4    0.095733    6.784307143    -0.473195238     0.091502381      0    0    0 #  C_R/C
33  2  4   -0.030420    6.249607143     0.771404762    -0.240897619      0    0    0 #  C_R/C
34  2  4   -0.052477    7.098007143     1.841604762    -0.524797619      0    0    0 #  C_R/C
35  2  8   -0.233056    5.960207143    -1.512795238     0.367202381      0    0    0 #  O_3/O
36  2  1    0.226147    4.562207143    -1.336395238     0.318102381      0    0    0 #  C_1/C
37  2  6   -0.164608    3.414007143    -1.191595238     0.277802381      0    0    0 #  N_1/N
38  2  5    0.066122    8.589007143    -1.629195238     0.402202381      0    0    0 #  H_/H
39  2  5    0.063986   10.106407143     0.285004762    -0.105297619      0    0    0 #  H_/H
40  2  5    0.066122    5.158907143     0.909004762    -0.279197619      0    0    0 #  H_/H
41  2  5    0.063986    6.676407143     2.823204762    -0.786997619      0    0    0 #  H_/H
42  2  3   -0.001413    9.391507143     2.815704762    -0.780897619      0    0    0 #  C_3/C

Bonds

  1   8     1     2  
  2   8     1     6  
  3   7    27     1  
  4   8     2     3  
  5   9    11     2  
  6   8     3     4  
  7   9    10     3  
  8   8     4     5  
  9   10    4     7  
 10   8     5     6  
 11   9    12     5  
 12   9    13     6  
 13   6     8     7  
 14   4     8     9  
 15   5     8    22  
 16   8    14    15  
 17   8    14    19  
 18   7    28    14  
 19   8    15    16  
 20   9    24    15  
 21   8    16    17  
 22   9    23    16  
 23   8    17    18  
 24   10   17    20  
 25   8    18    19  
 26   9    25    18  
 27   9    26    19  
 28   3    21    20  
 29   2    21    22  
 30   8    29    30  
 31   8    29    34  
 32   7    42    29  
 33   8    30    31  
 34   9    39    30  
 35   8    31    32  
 36   9    38    31  
 37   8    32    33  
 38   10   32    35  
 39   8    33    34  
 40   9    40    33  
 41   9    41    34  
 42   3    36    35  
 43   1    36    37  

Angles

  1   3     2     1     6  
  2   3     2     1    27  
  3   3     6     1    27  
  4   3     1     2    11  
  5   3     1     2     3  
  6   3     3     2    11  
  7   3     4     3    10  
  8   3     2     3     4  
  9   3     2     3    10  
 10   3     3     4     7  
 11   3     5     4     7  
 12   3     3     4     5  
 13   3     4     5     6  
 14   3     4     5    12  
 15   3     6     5    12  
 16   3     1     6     5  
 17   3     5     6    13  
 18   3     1     6    13  
 19   5     4     7     8  
 20   2     7     8    22  
 21   2     7     8     9  
 22   2     9     8    22  
 23   3    19    14    28  
 24   3    15    14    19  
 25   3    15    14    28  
 26   3    14    15    24  
 27   3    14    15    16  
 28   3    16    15    24  
 29   3    17    16    23  
 30   3    15    16    17  
 31   3    15    16    23  
 32   3    16    17    20  
 33   3    18    17    20  
 34   3    16    17    18  
 35   3    17    18    19  
 36   3    17    18    25  
 37   3    19    18    25  
 38   3    14    19    18  
 39   3    18    19    26  
 40   3    14    19    26  
 41   5    17    20    21  
 42   1    20    21    22  
 43   4     8    22    21  
 44   3    30    29    34  
 45   3    34    29    42  
 46   3    30    29    42  
 47   3    29    30    31  
 48   3    29    30    39  
 49   3    31    30    39  
 50   3    30    31    32  
 51   3    32    31    38  
 52   3    30    31    38  
 53   3    31    32    35  
 54   3    33    32    35  
 55   3    31    32    33  
 56   3    34    33    40  
 57   3    32    33    34  
 58   3    32    33    40  
 59   3    29    34    41  
 60   3    29    34    33  
 61   3    33    34    41  
 62   5    32    35    36  
 63   1    35    36    37  

Dihedrals

  1   2     2     1     6    13  
  2   2     2     1     6     5  
  3   2     6     1     2    11  
  4   2     1     2     3     4  
  5   2     3     2     1    27  
  6   2     3     2     1     6  
  7   2     1     2     3    10  
  8   2    11     2     1    27  
  9   2    10     3     2    11  
 10   2     4     3     2    11  
 11   2     2     3     4     5  
 12   2     2     3     4     7  
 13   2     7     4     5    12  
 14   2     3     4     5     6  
 15   3     8     7     4     5  
 16   3     8     7     4     3  
 17   2     5     4     3    10  
 18   2     3     4     5    12  
 19   2     7     4     3    10  
 20   2     6     5     4     7  
 21   2    12     5     6    13  
 22   2     4     5     6    13  
 23   2     1     6     5    12  
 24   2    13     6     1    27  
 25   2     1     6     5     4  
 26   2     5     6     1    27  
 27   6     4     7     8     9  
 28   6     4     7     8    22  
 29   1     9     8    22    21  
 30   1     7     8    22    21  
 31   2    15    14    19    26  
 32   2    15    14    19    18  
 33   2    19    14    15    24  
 34   2    14    15    16    17  
 35   2    14    15    16    23  
 36   2    16    15    14    19  
 37   2    16    15    14    28  
 38   2    24    15    14    28  
 39   2    15    16    17    20  
 40   2    17    16    15    24  
 41   2    15    16    17    18  
 42   2    23    16    15    24  
 43   2    16    17    18    19  
 44   3    21    20    17    18  
 45   3    21    20    17    16  
 46   2    16    17    18    25  
 47   2    18    17    16    23  
 48   2    20    17    16    23  
 49   2    20    17    18    25  
 50   2    25    18    19    26  
 51   2    17    18    19    26  
 52   2    19    18    17    20  
 53   2    14    19    18    25  
 54   2    26    19    14    28  
 55   2    18    19    14    28  
 56   2    14    19    18    17  
 57   5    22    21    20    17  
 58   4    20    21    22     8  
 59   2    34    29    30    39  
 60   2    30    29    34    41  
 61   2    30    29    34    33  
 62   2    31    30    29    42  
 63   2    29    30    31    32  
 64   2    39    30    29    42  
 65   2    29    30    31    38  
 66   2    31    30    29    34  
 67   2    30    31    32    33  
 68   2    38    31    30    39  
 69   2    30    31    32    35  
 70   2    32    31    30    39  
 71   3    36    35    32    31  
 72   2    31    32    33    40  
 73   2    33    32    31    38  
 74   2    35    32    31    38  
 75   2    35    32    33    40  
 76   3    36    35    32    33  
 77   2    31    32    33    34  
 78   2    40    33    34    41  
 79   2    32    33    34    41  
 80   2    34    33    32    35  
 81   2    33    34    29    42  
 82   2    29    34    33    40  
 83   2    41    34    29    42  
 84   2    29    34    33    32  
 85   5    37    36    35    32  

Impropers

  1   2     2     1     6    27  
  2   2     1     2     3    11  
  3   2     2     3     4    10  
  4   2     3     4     5     7  
  5   2     4     5     6    12  
  6   2     1     6     5    13  
  7   1     7     8     9    22  
  8   2    15    14    19    28  
  9   2    14    15    16    24  
 10   2    15    16    17    23  
 11   2    16    17    18    20  
 12   2    17    18    19    25  
 13   2    14    19    18    26  
 14   2    30    29    34    42  
 15   2    29    30    31    39  
 16   2    30    31    32    38  
 17   2    31    32    33    35  
 18   2    32    33    34    40  
 19   2    29    34    33    41  
