HEADER,  pre_reaction_2.mol converted to generic lammps datafile class with mol2lmp > atom_typing v1.0 / 16 Jan 2023 > all2lmp: v1.14 / 18 December 2023  Class: 2

36 atoms
35 bonds
58 angles
70 dihedrals
30 impropers

12 atom types
17 bond types
30 angle types
39 dihedral types
21 improper types

-8.335491667 7.127108333 xlo xhi
-3.506569444 3.037430556 ylo yhi
-10.387008333 6.567791667 zlo zhi

Masses

1   12.01115000  #  c1   
2   12.01115000  #  c2   
3   12.01115000  #  c3   
4   12.01115000  #  c3h  
5   12.01115000  #  cp   
6    1.00797000  #  hc   
7    1.00797000  #  hn   
8    1.00800000  #  ho2  
9   14.00670000  #  nn   
10  15.99940000  #  o3e  
11  15.99940000  #  oc   
12  15.99940000  #  oh   

Pair Coeffs  # lj/class2/coul/long

1         0.05400000      4.01000000 #  c1   
2         0.05400000      4.01000000 #  c2   
3         0.05400000      3.90000000 #  c3   
4         0.05400000      4.01000000 #  c3h  
5         0.06400000      4.01000000 #  cp   
6         0.02000000      2.99500000 #  hc   
7         0.01300000      1.09800000 #  hn   
8         0.01300000      1.11000000 #  ho2  
9         0.06500000      4.07000000 #  nn   
10        0.24000000      3.53500000 #  o3e  
11        0.24000000      3.53500000 #  oc   
12        0.24000000      3.53500000 #  oh   

Bond Coeffs  # class2

1         1.53000000    299.67000000   -501.77000000    679.81000000 #  c1          c2   
2         1.10100000    345.00000000   -691.89000000    844.60000000 #  c1          hc   
3         1.42000000    400.39540000   -835.19510000   1313.01420000 #  c1          oh   
4         1.53000000    299.67000000   -501.77000000    679.81000000 #  c2         c3h   
5         1.50100000    321.90210000   -521.82080000    572.16280000 #  c2          cp   
6         1.10100000    345.00000000   -691.89000000    844.60000000 #  c2          hc   
7         1.47000000    356.59880000      0.00000000      0.00000000 #  c2          nn   
8         1.42000000    400.39540000   -835.19510000   1313.01420000 #  c2          oc   
9         1.50100000    321.90210000   -521.82080000    572.16280000 #  c3          cp   
10        1.53000000    299.67000000   -501.77000000    679.81000000 #  c3h        c3h   
11        1.10100000    345.00000000   -691.89000000    844.60000000 #  c3h         hc   
12        1.42000000    400.39540000   -835.19510000   1313.01420000 #  c3h        o3e   
13        1.41700000    470.83610000   -627.61790000   1327.63450000 #  cp          cp   
14        1.39120000    447.04380000   -784.53460000    886.16710000 #  cp          nn   
15        1.37680000    428.87980000   -738.23510000   1114.96550000 #  cp          oc   
16        1.00120000    465.86080000  -1066.23600000   1496.56470000 #  hn          nn   
17        0.96000000    493.84800000      0.00000000      0.00000000 #  ho2         oh   

Angle Coeffs  # class2

1       110.77000000     41.45300000    -10.60400000      5.12900000 #  c1         c2         hc   
2       114.00000000     50.00000000      0.00000000      0.00000000 #  c1         c2         nn   
3       111.27000000     54.53810000     -8.36420000    -13.08380000 #  c1         c2         oc   
4       109.00000000     58.50000000      0.00000000      0.00000000 #  c1         oh        ho2   
5       112.67000000     39.51600000     -7.44300000     -9.55830000 #  c2         c1         c2   
6       110.77000000     41.45300000    -10.60400000      5.12900000 #  c2         c1         hc   
7       111.27000000     54.53810000     -8.36420000    -13.08380000 #  c2         c1         oh   
8       112.67000000     39.51600000     -7.44300000     -9.55830000 #  c2        c3h        c3h   
9       110.77000000     41.45300000    -10.60400000      5.12900000 #  c2        c3h         hc   
10      111.27000000     54.53810000     -8.36420000    -13.08380000 #  c2        c3h        o3e   
11      120.05000000     44.71480000    -22.73520000      0.00000000 #  c2         cp         cp   
12      120.00000000     50.00000000      0.00000000      0.00000000 #  c2         nn         cp   
13      122.00000000     35.00000000      0.00000000      0.00000000 #  c2         nn         hn   
14      102.96950000     38.97390000     -6.25950000     -8.17100000 #  c2         oc         cp   
15      120.05000000     44.71480000    -22.73520000      0.00000000 #  c3         cp         cp   
16      110.77000000     41.45300000    -10.60400000      5.12900000 #  c3h        c2         hc   
17      111.27000000     54.53810000     -8.36420000    -13.08380000 #  c3h        c2         oc   
18      110.77000000     41.45300000    -10.60400000      5.12900000 #  c3h       c3h         hc   
19      111.27000000     54.53810000     -8.36420000    -13.08380000 #  c3h       c3h        o3e   
20      104.50000000     35.74540000    -10.00670000     -6.27290000 #  c3h       o3e        c3h   
21      118.90000000     61.02260000    -34.99310000      0.00000000 #  cp         cp         cp   
22      121.45840000     61.06470000    -21.61720000      0.00000000 #  cp         cp         nn   
23      123.42000000     73.67810000    -21.67870000      0.00000000 #  cp         cp         oc   
24      111.87250000     40.83690000    -15.66730000      0.00000000 #  cp         nn         hn   
25      108.72800000     58.54460000    -10.80880000    -12.40060000 #  hc         c1         oh   
26      107.66000000     39.64100000    -12.92100000     -2.43180000 #  hc         c2         hc   
27      109.50000000     50.00000000      0.00000000      0.00000000 #  hc         c2         nn   
28      108.72800000     58.54460000    -10.80880000    -12.40060000 #  hc         c2         oc   
29      107.66000000     39.64100000    -12.92100000     -2.43180000 #  hc        c3h         hc   
30      108.72800000     58.54460000    -10.80880000    -12.40060000 #  hc        c3h        o3e   

Dihedral Coeffs  # class2

1        -0.14320000      0.00000000      0.06170000      0.00000000     -0.10830000      0.00000000 #  hc         c1        c2         hc   
2         0.00000000      0.00000000      0.03160000      0.00000000     -0.16810000      0.00000000 #  c2         c1        c2         hc   
3         0.00000000      0.00000000      0.00000000      0.00000000      0.15800000      0.00000000 #  c2         c1        c2         nn   
4         0.00000000      0.00000000      0.00000000      0.00000000      0.15800000      0.00000000 #  hc         c1        c2         nn   
5        -0.14350000      0.00000000      0.25300000      0.00000000     -0.09050000      0.00000000 #  hc         c1        c2         oc   
6         0.71370000      0.00000000      0.26600000      0.00000000     -0.25450000      0.00000000 #  c2         c1        c2         oc   
7         0.00000000      0.00000000      0.00000000      0.00000000      0.13000000      0.00000000 #  hc         c1        oh        ho2   
8         0.00000000      0.00000000      0.00000000      0.00000000      0.13000000      0.00000000 #  c2         c1        oh        ho2   
9         0.00000000      0.00000000      0.00000000      0.00000000      0.15800000      0.00000000 #  nn         c2        c1         oh   
10       -0.18200000      0.00000000     -0.10840000      0.00000000     -0.70470000      0.00000000 #  oc         c2        c1         oh   
11       -0.14350000      0.00000000      0.25300000      0.00000000     -0.09050000      0.00000000 #  hc         c2        c1         oh   
12       -0.14320000      0.00000000      0.06170000      0.00000000     -0.10830000      0.00000000 #  hc         c2       c3h         hc   
13       -0.14350000      0.00000000      0.25300000      0.00000000     -0.09050000      0.00000000 #  hc         c2       c3h        o3e   
14        0.00000000      0.00000000      0.00000000      0.00000000      0.00000000      0.00000000 #  c1         c2        nn         cp   
15        0.00000000      0.00000000      0.00000000      0.00000000      0.00000000      0.00000000 #  hc         c2        nn         hn   
16        0.00000000      0.00000000      0.00000000      0.00000000      0.00000000      0.00000000 #  c1         c2        nn         hn   
17        0.00000000      0.00000000      0.00000000      0.00000000      0.13000000      0.00000000 #  c3h        c2        oc         cp   
18        0.00000000      0.00000000      0.00000000      0.00000000      0.13000000      0.00000000 #  c1         c2        oc         cp   
19        0.00000000      0.00000000      0.03160000      0.00000000     -0.16810000      0.00000000 #  c3h       c3h        c2         hc   
20        0.71370000      0.00000000      0.26600000      0.00000000     -0.25450000      0.00000000 #  c3h       c3h        c2         oc   
21       -0.14350000      0.00000000      0.25300000      0.00000000     -0.09050000      0.00000000 #  hc        c3h        c2         oc   
22       -0.18200000      0.00000000     -0.10840000      0.00000000     -0.70470000      0.00000000 #  o3e       c3h        c2         oc   
23        0.00000000      0.00000000      0.03160000      0.00000000     -0.16810000      0.00000000 #  c2        c3h       c3h         hc   
24       -0.14320000      0.00000000      0.06170000      0.00000000     -0.10830000      0.00000000 #  hc        c3h       c3h         hc   
25        0.71370000      0.00000000      0.26600000      0.00000000     -0.25450000      0.00000000 #  c2        c3h       c3h        o3e   
26       -0.14350000      0.00000000      0.25300000      0.00000000     -0.09050000      0.00000000 #  hc        c3h       c3h        o3e   
27       -0.52030000      0.00000000     -0.30280000      0.00000000     -0.34500000      0.00000000 #  c2        c3h       o3e        c3h   
28        0.00000000      0.00000000      4.40720000      0.00000000      0.00000000      0.00000000 #  c2         cp        cp         cp   
29        0.00000000      0.00000000      4.40720000      0.00000000      0.00000000      0.00000000 #  c3         cp        cp         cp   
30        8.36670000      0.00000000      1.19320000      0.00000000      0.00000000      0.00000000 #  cp         cp        cp         cp   
31        0.00000000      0.00000000      3.00000000      0.00000000      0.00000000      0.00000000 #  c3         cp        cp         nn   
32        0.00000000      0.00000000      5.38260000      0.00000000      0.00000000      0.00000000 #  cp         cp        cp         nn   
33        0.00000000      0.00000000      3.00000000      0.00000000      0.00000000      0.00000000 #  c2         cp        cp         nn   
34        0.00000000      0.00000000      1.21900000      0.00000000      0.00000000      0.00000000 #  cp         cp        nn         hn   
35        0.00000000      0.00000000      0.00000000      0.00000000      0.00000000      0.00000000 #  hc         c2        nn         cp   
36        0.00000000      0.00000000      2.25000000      0.00000000      0.00000000      0.00000000 #  cp         cp        nn         c2   
37        0.53020000      0.00000000      0.00000000      0.00000000     -0.39660000      0.00000000 #  hc        c3h       o3e        c3h   
38        0.95130000      0.00000000      0.11550000      0.00000000      0.07200000      0.00000000 #  hc         c2        oc         cp   
39        0.00000000      0.00000000      1.50000000      0.00000000      0.00000000      0.00000000 #  cp         cp        oc         c2   

Improper Coeffs  # class2

1         7.81530000      0.00000000 #  c2         cp        cp        cp      nb==3   
2         0.10000000      0.00000000 #  c2         nn        cp        hn      nb==3   
3         7.81530000      0.00000000 #  c3         cp        cp        cp      nb==3   
4        10.78550000      0.00000000 #  cp         cp        cp        nn      nb==3   
5        13.04210000      0.00000000 #  cp         cp        cp        oc      nb==3   
6         0.00000000      0.00000000 #  c1         c2        hc        hc      nb!=3   
7         0.00000000      0.00000000 #  c1         c2        hc        nn      nb!=3   
8         0.00000000      0.00000000 #  c1         c2        hc        oc      nb!=3   
9         0.00000000      0.00000000 #  c2         c1        c2        hc      nb!=3   
10        0.00000000      0.00000000 #  c2         c1        c2        oh      nb!=3   
11        0.00000000      0.00000000 #  c2         c1        hc        oh      nb!=3   
12        0.00000000      0.00000000 #  c2        c3h       c3h        hc      nb!=3   
13        0.00000000      0.00000000 #  c2        c3h       c3h       o3e      nb!=3   
14        0.00000000      0.00000000 #  c2        c3h        hc       o3e      nb!=3   
15        0.00000000      0.00000000 #  c3h        c2        hc        hc      nb!=3   
16        0.00000000      0.00000000 #  c3h        c2        hc        oc      nb!=3   
17        0.00000000      0.00000000 #  c3h       c3h        hc        hc      nb!=3   
18        0.00000000      0.00000000 #  c3h       c3h        hc       o3e      nb!=3   
19        0.00000000      0.00000000 #  hc         c2        hc        nn      nb!=3   
20        0.00000000      0.00000000 #  hc         c2        hc        oc      nb!=3   
21        0.00000000      0.00000000 #  hc        c3h        hc       o3e      nb!=3   

BondBond Coeffs  # class2

1         3.38720000      1.53000000      1.10100000 #  c1         c2         hc   
2         0.00000000      1.53000000      1.47000000 #  c1         c2         nn   
3        11.43180000      1.53000000      1.42000000 #  c1         c2         oc   
4         0.00000000      1.42000000      0.96000000 #  c1         oh        ho2   
5         0.00000000      1.53000000      1.53000000 #  c2         c1         c2   
6         3.38720000      1.53000000      1.10100000 #  c2         c1         hc   
7        11.43180000      1.53000000      1.42000000 #  c2         c1         oh   
8         0.00000000      1.53000000      1.53000000 #  c2        c3h        c3h   
9         3.38720000      1.53000000      1.10100000 #  c2        c3h         hc   
10       11.43180000      1.53000000      1.42000000 #  c2        c3h        o3e   
11       12.06760000      1.50100000      1.41700000 #  c2         cp         cp   
12        0.00000000      1.47000000      1.39120000 #  c2         nn         cp   
13        0.00000000      1.47000000      1.00120000 #  c2         nn         hn   
14        0.00000000      1.42000000      1.37680000 #  c2         oc         cp   
15       12.06760000      1.50100000      1.41700000 #  c3         cp         cp   
16        3.38720000      1.53000000      1.10100000 #  c3h        c2         hc   
17       11.43180000      1.53000000      1.42000000 #  c3h        c2         oc   
18        3.38720000      1.53000000      1.10100000 #  c3h       c3h         hc   
19       11.43180000      1.53000000      1.42000000 #  c3h       c3h        o3e   
20       -7.11310000      1.42000000      1.42000000 #  c3h       o3e        c3h   
21       68.28560000      1.41700000      1.41700000 #  cp         cp         cp   
22       46.95130000      1.41700000      1.39120000 #  cp         cp         nn   
23       48.47540000      1.41700000      1.37680000 #  cp         cp         oc   
24        4.53930000      1.39120000      1.00120000 #  cp         nn         hn   
25       23.19790000      1.10100000      1.42000000 #  hc         c1         oh   
26        5.33160000      1.10100000      1.10100000 #  hc         c2         hc   
27        0.00000000      1.10100000      1.47000000 #  hc         c2         nn   
28       23.19790000      1.10100000      1.42000000 #  hc         c2         oc   
29        5.33160000      1.10100000      1.10100000 #  hc        c3h         hc   
30       23.19790000      1.10100000      1.42000000 #  hc        c3h        o3e   

BondAngle Coeffs  # class2

1        20.75400000     11.42100000      1.53000000      1.10100000 #  c1         c2         hc   
2         0.00000000      0.00000000      1.53000000      1.47000000 #  c1         c2         nn   
3         2.68680000     20.40330000      1.53000000      1.42000000 #  c1         c2         oc   
4         0.00000000      0.00000000      1.42000000      0.96000000 #  c1         oh        ho2   
5         8.01600000      8.01600000      1.53000000      1.53000000 #  c2         c1         c2   
6        20.75400000     11.42100000      1.53000000      1.10100000 #  c2         c1         hc   
7         2.68680000     20.40330000      1.53000000      1.42000000 #  c2         c1         oh   
8         8.01600000      8.01600000      1.53000000      1.53000000 #  c2        c3h        c3h   
9        20.75400000     11.42100000      1.53000000      1.10100000 #  c2        c3h         hc   
10        2.68680000     20.40330000      1.53000000      1.42000000 #  c2        c3h        o3e   
11       47.05790000     31.07710000      1.50100000      1.41700000 #  c2         cp         cp   
12        0.00000000      0.00000000      1.47000000      1.39120000 #  c2         nn         cp   
13        0.00000000      0.00000000      1.47000000      1.00120000 #  c2         nn         hn   
14        0.00000000      0.00000000      1.42000000      1.37680000 #  c2         oc         cp   
15       47.05790000     31.07710000      1.50100000      1.41700000 #  c3         cp         cp   
16       20.75400000     11.42100000      1.53000000      1.10100000 #  c3h        c2         hc   
17        2.68680000     20.40330000      1.53000000      1.42000000 #  c3h        c2         oc   
18       20.75400000     11.42100000      1.53000000      1.10100000 #  c3h       c3h         hc   
19        2.68680000     20.40330000      1.53000000      1.42000000 #  c3h       c3h        o3e   
20       -2.81120000     -2.81120000      1.42000000      1.42000000 #  c3h       o3e        c3h   
21       28.87080000     28.87080000      1.41700000      1.41700000 #  cp         cp         cp   
22       39.40400000     73.65480000      1.41700000      1.39120000 #  cp         cp         nn   
23       58.47900000    107.68060000      1.41700000      1.37680000 #  cp         cp         oc   
24       38.57040000     16.55240000      1.39120000      1.00120000 #  cp         nn         hn   
25        4.61890000     55.32700000      1.10100000      1.42000000 #  hc         c1         oh   
26       18.10300000     18.10300000      1.10100000      1.10100000 #  hc         c2         hc   
27        0.00000000      0.00000000      1.10100000      1.47000000 #  hc         c2         nn   
28        4.61890000     55.32700000      1.10100000      1.42000000 #  hc         c2         oc   
29       18.10300000     18.10300000      1.10100000      1.10100000 #  hc        c3h         hc   
30        4.61890000     55.32700000      1.10100000      1.42000000 #  hc        c3h        o3e   

AngleAngleTorsion Coeffs  # class2

1       -12.56400000    110.77000000    110.77000000 #  hc         c1        c2         hc   
2       -16.16400000    112.67000000    110.77000000 #  c2         c1        c2         hc   
3         0.00000000    112.67000000    114.00000000 #  c2         c1        c2         nn   
4         0.00000000    110.77000000    114.00000000 #  hc         c1        c2         nn   
5       -20.20060000    110.77000000    111.27000000 #  hc         c1        c2         oc   
6       -29.04200000    112.67000000    111.27000000 #  c2         c1        c2         oc   
7         0.00000000    108.72800000    109.00000000 #  hc         c1        oh        ho2   
8         0.00000000    111.27000000    109.00000000 #  c2         c1        oh        ho2   
9         0.00000000    114.00000000    111.27000000 #  nn         c2        c1         oh   
10      -14.04840000    111.27000000    111.27000000 #  oc         c2        c1         oh   
11      -20.20060000    110.77000000    111.27000000 #  hc         c2        c1         oh   
12      -12.56400000    110.77000000    110.77000000 #  hc         c2       c3h         hc   
13      -20.20060000    110.77000000    111.27000000 #  hc         c2       c3h        o3e   
14        0.00000000    114.00000000    120.00000000 #  c1         c2        nn         cp   
15        0.00000000    109.50000000    122.00000000 #  hc         c2        nn         hn   
16        0.00000000    114.00000000    122.00000000 #  c1         c2        nn         hn   
17        0.00000000    111.27000000    102.96950000 #  c3h        c2        oc         cp   
18        0.00000000    111.27000000    102.96950000 #  c1         c2        oc         cp   
19      -16.16400000    112.67000000    110.77000000 #  c3h       c3h        c2         hc   
20      -29.04200000    112.67000000    111.27000000 #  c3h       c3h        c2         oc   
21      -20.20060000    110.77000000    111.27000000 #  hc        c3h        c2         oc   
22      -14.04840000    111.27000000    111.27000000 #  o3e       c3h        c2         oc   
23      -16.16400000    112.67000000    110.77000000 #  c2        c3h       c3h         hc   
24      -12.56400000    110.77000000    110.77000000 #  hc        c3h       c3h         hc   
25      -29.04200000    112.67000000    111.27000000 #  c2        c3h       c3h        o3e   
26      -20.20060000    110.77000000    111.27000000 #  hc        c3h       c3h        o3e   
27      -19.00590000    111.27000000    104.50000000 #  c2        c3h       o3e        c3h   
28      -14.40970000    120.05000000    118.90000000 #  c2         cp        cp         cp   
29      -14.40970000    120.05000000    118.90000000 #  c3         cp        cp         cp   
30        0.00000000    118.90000000    118.90000000 #  cp         cp        cp         cp   
31        0.00000000    120.05000000    121.45840000 #  c3         cp        cp         nn   
32        0.00000000    118.90000000    121.45840000 #  cp         cp        cp         nn   
33        0.00000000    120.05000000    121.45840000 #  c2         cp        cp         nn   
34       -7.17550000    121.45840000    111.87250000 #  cp         cp        nn         hn   
35        0.00000000    109.50000000    120.00000000 #  hc         c2        nn         cp   
36        0.00000000    121.45840000    120.00000000 #  cp         cp        nn         c2   
37      -16.44380000    108.72800000    104.50000000 #  hc        c3h       o3e        c3h   
38        0.00000000    108.72800000    102.96950000 #  hc         c2        oc         cp   
39        0.00000000    123.42000000    102.96950000 #  cp         cp        oc         c2   

EndBondTorsion Coeffs  # class2

1         0.21300000      0.31200000      0.07770000      0.21300000      0.31200000      0.07770000      1.10100000      1.10100000 #  hc         c1        c2         hc   
2         0.24860000      0.24220000     -0.09250000      0.08140000      0.05910000      0.22190000      1.53000000      1.10100000 #  c2         c1        c2         hc   
3         0.00000000      0.00000000      0.00000000      0.00000000      0.00000000      0.00000000      1.53000000      1.47000000 #  c2         c1        c2         nn   
4         0.00000000      0.00000000      0.00000000      0.00000000      0.00000000      0.00000000      1.10100000      1.47000000 #  hc         c1        c2         nn   
5         0.96810000      0.95510000      0.04360000      0.59030000      0.66690000      0.85840000      1.10100000      1.42000000 #  hc         c1        c2         oc   
6        -0.31900000      0.44110000     -0.71740000      1.15380000      0.84090000     -0.91380000      1.53000000      1.42000000 #  c2         c1        c2         oc   
7         0.00000000      0.00000000      0.00000000      0.00000000      0.00000000      0.00000000      1.10100000      0.96000000 #  hc         c1        oh        ho2   
8         0.00000000      0.00000000      0.00000000      0.00000000      0.00000000      0.00000000      1.53000000      0.96000000 #  c2         c1        oh        ho2   
9         0.00000000      0.00000000      0.00000000      0.00000000      0.00000000      0.00000000      1.47000000      1.42000000 #  nn         c2        c1         oh   
10        1.01650000      0.75530000     -0.46090000      1.01650000      0.75530000     -0.46090000      1.42000000      1.42000000 #  oc         c2        c1         oh   
11        0.96810000      0.95510000      0.04360000      0.59030000      0.66690000      0.85840000      1.10100000      1.42000000 #  hc         c2        c1         oh   
12        0.21300000      0.31200000      0.07770000      0.21300000      0.31200000      0.07770000      1.10100000      1.10100000 #  hc         c2       c3h         hc   
13        0.96810000      0.95510000      0.04360000      0.59030000      0.66690000      0.85840000      1.10100000      1.42000000 #  hc         c2       c3h        o3e   
14        0.00000000      0.00000000      0.00000000      0.00000000      0.00000000      0.00000000      1.53000000      1.39120000 #  c1         c2        nn         cp   
15        0.00000000      0.00000000      0.00000000      0.00000000      0.00000000      0.00000000      1.10100000      1.00120000 #  hc         c2        nn         hn   
16        0.00000000      0.00000000      0.00000000      0.00000000      0.00000000      0.00000000      1.53000000      1.00120000 #  c1         c2        nn         hn   
17        0.00000000      0.00000000      0.00000000      0.00000000      0.00000000      0.00000000      1.53000000      1.37680000 #  c3h        c2        oc         cp   
18        0.00000000      0.00000000      0.00000000      0.00000000      0.00000000      0.00000000      1.53000000      1.37680000 #  c1         c2        oc         cp   
19        0.24860000      0.24220000     -0.09250000      0.08140000      0.05910000      0.22190000      1.53000000      1.10100000 #  c3h       c3h        c2         hc   
20       -0.31900000      0.44110000     -0.71740000      1.15380000      0.84090000     -0.91380000      1.53000000      1.42000000 #  c3h       c3h        c2         oc   
21        0.96810000      0.95510000      0.04360000      0.59030000      0.66690000      0.85840000      1.10100000      1.42000000 #  hc        c3h        c2         oc   
22        1.01650000      0.75530000     -0.46090000      1.01650000      0.75530000     -0.46090000      1.42000000      1.42000000 #  o3e       c3h        c2         oc   
23        0.24860000      0.24220000     -0.09250000      0.08140000      0.05910000      0.22190000      1.53000000      1.10100000 #  c2        c3h       c3h         hc   
24        0.21300000      0.31200000      0.07770000      0.21300000      0.31200000      0.07770000      1.10100000      1.10100000 #  hc        c3h       c3h         hc   
25       -0.31900000      0.44110000     -0.71740000      1.15380000      0.84090000     -0.91380000      1.53000000      1.42000000 #  c2        c3h       c3h        o3e   
26        0.96810000      0.95510000      0.04360000      0.59030000      0.66690000      0.85840000      1.10100000      1.42000000 #  hc        c3h       c3h        o3e   
27       -0.24560000      1.05170000     -0.77950000      0.47410000      1.26350000      0.55760000      1.53000000      1.42000000 #  c2        c3h       o3e        c3h   
28        0.00000000      0.24210000      0.00000000      0.00000000     -0.69180000      0.00000000      1.50100000      1.41700000 #  c2         cp        cp         cp   
29        0.00000000      0.24210000      0.00000000      0.00000000     -0.69180000      0.00000000      1.50100000      1.41700000 #  c3         cp        cp         cp   
30       -0.11850000      6.32040000      0.00000000     -0.11850000      6.32040000      0.00000000      1.41700000      1.41700000 #  cp         cp        cp         cp   
31        0.00000000      0.00000000      0.00000000      0.00000000      0.00000000      0.00000000      1.50100000      1.39120000 #  c3         cp        cp         nn   
32        0.00000000     -6.54040000      0.00000000      0.00000000     -7.34770000      0.00000000      1.41700000      1.39120000 #  cp         cp        cp         nn   
33        0.00000000      0.00000000      0.00000000      0.00000000      0.00000000      0.00000000      1.50100000      1.39120000 #  c2         cp        cp         nn   
34        0.00000000     -3.72810000      0.00000000      0.00000000      0.28490000      0.00000000      1.41700000      1.00120000 #  cp         cp        nn         hn   
35        0.00000000      0.00000000      0.00000000      0.00000000      0.00000000      0.00000000      1.10100000      1.39120000 #  hc         c2        nn         cp   
36        0.00000000      0.00000000      0.00000000      0.00000000      0.00000000      0.00000000      1.41700000      1.47000000 #  cp         cp        nn         c2   
37       -0.60540000      1.33390000      0.96480000     -0.16200000      0.15640000     -1.14080000      1.10100000      1.42000000 #  hc        c3h       o3e        c3h   
38        0.00000000      0.00000000      0.00000000      0.00000000      0.00000000      0.00000000      1.10100000      1.37680000 #  hc         c2        oc         cp   
39        0.00000000      0.00000000      0.00000000      0.00000000      0.00000000      0.00000000      1.41700000      1.42000000 #  cp         cp        oc         c2   

MiddleBondTorsion Coeffs  # class2

1       -14.26100000     -0.53220000     -0.48640000      1.53000000 #  hc         c1        c2         hc   