HEADER, created with sheet_builder v1.1 / 21 September 2024 > all2lmp: v1.21 / 13 November 2024  Class: i > atom_typing v1.10 / 10 May 2024 w/PCFF-IFF atom-types > all2lmp: v1.19 / 5 June 2024  Class: 2

3552 atoms
5312 bonds
10656 angles
21312 dihedrals
3616 impropers

3 atom types
3 bond types
4 angle types
4 dihedral types
4 improper types

-24.595121468 24.595121468 xlo xhi
-23.430000000 23.430000000 ylo yhi
-8.708000000 8.708000000 zlo zhi

Masses

1   12.01115000  #  c    
2   12.01115000  #  cp   
3   15.99940000  #  o_1  

Pair Coeffs  # lj/class2/coul/long

1         0.05400000      4.01000000 #  c    
2         0.06400000      4.01000000 #  cp   
3         0.26700000      3.30000000 #  o_1  

Bond Coeffs  # class2

1         1.50100000    321.90210000   -521.82080000    572.16280000 #  c           cp   
2         1.38000000    318.94840000      0.00000000      0.00000000 #  c          o_1   
3         1.41700000    470.83610000   -627.61790000   1327.63450000 #  cp          cp   

Angle Coeffs  # class2

1       120.05000000     44.71480000    -22.73520000      0.00000000 #  c          cp         cp   
2       111.00000000     44.32340000     -9.44540000      0.00000000 #  cp         c          cp   
3       109.50000000     46.00000000      0.00000000      0.00000000 #  o_1        c          cp   
4       118.90000000     61.02260000    -34.99310000      0.00000000 #  cp         cp         cp   

Dihedral Coeffs  # class2

1        -0.28020000      0.00000000     -0.06780000      0.00000000     -0.01220000      0.00000000 #  cp         c         cp         cp   
2         0.00000000      0.00000000      0.00000000      0.00000000      0.00000000      0.00000000 #  o_1        c         cp         cp   
3         8.36670000      0.00000000      1.19320000      0.00000000      0.00000000      0.00000000 #  cp         cp        cp         cp   
4         0.00000000      0.00000000      4.40720000      0.00000000      0.00000000      0.00000000 #  c          cp        cp         cp   

Improper Coeffs  # class2

1         7.81530000      0.00000000 #  c          cp        cp        cp      nb==3   
2         7.17940000      0.00000000 #  cp         cp        cp        cp      nb==3   
3         0.00000000      0.00000000 #  cp         c         cp        cp      nb!=3   
4         0.00000000      0.00000000 #  cp         c         cp       o_1      nb!=3   

BondBond Coeffs  # class2

1        12.06760000      1.50100000      1.41700000 #  c          cp         cp   
2         0.00000000      1.50100000      1.50100000 #  cp         c          cp   
3         0.00000000      1.38000000      1.50100000 #  o_1        c          cp   
4        68.28560000      1.41700000      1.41700000 #  cp         cp         cp   

BondAngle Coeffs  # class2

1        47.05790000     31.07710000      1.50100000      1.41700000 #  c          cp         cp   
2         0.00000000      0.00000000      1.50100000      1.50100000 #  cp         c          cp   
3         0.00000000      0.00000000      1.38000000      1.50100000 #  o_1        c          cp   
4        28.87080000     28.87080000      1.41700000      1.41700000 #  cp         cp         cp   

AngleAngleTorsion Coeffs  # class2

1         0.00000000    111.00000000    120.05000000 #  cp         c         cp         cp   
2         0.00000000    109.50000000    120.05000000 #  o_1        c         cp         cp   
3         0.00000000    118.90000000    118.90000000 #  cp         cp        cp         cp   
4       -14.40970000    120.05000000    118.90000000 #  c          cp        cp         cp   

EndBondTorsion Coeffs  # class2

1         0.00000000      0.00000000      0.00000000      0.00000000      0.00000000      0.00000000      1.50100000      1.41700000 #  cp         c         cp         cp   
2         0.00000000      0.00000000      0.00000000      0.00000000      0.00000000      0.00000000      1.38000000      1.41700000 #  o_1        c         cp         cp   
3        -0.11850000      6.32040000      0.00000000     -0.11850000      6.32040000      0.00000000      1.41700000      1.41700000 #  cp         cp        cp         cp   
4         0.00000000      0.24210000      0.00000000      0.00000000     -0.69180000      0.00000000      1.50100000      1.41700000 #  c          cp        cp         cp   

MiddleBondTorsion Coeffs  # class2

1         0.00000000      0.00000000      0.00000000      1.50100000 #  cp         c         cp         cp   
2         0.00000000      0.00000000      0.00000000      1.50100000 #  o_1        c         cp         cp   
3        27.59890000     -2.31200000      0.00000000      1.41700000 #  cp         cp        cp         cp   
4         0.00000000      9.17920000      0.00000000      1.41700000 #  c          cp        cp         cp   

BondBond13 Coeffs  # class2

1         0.00000000      1.50100000      1.41700000 #  cp         c         cp         cp   
2         0.00000000      1.38000000      1.41700000 #  o_1        c         cp         cp   
3        53.00000000      1.41700000      1.41700000 #  cp         cp        cp         cp   
4         2.50850000      1.50100000      1.41700000 #  c          cp        cp         cp   

AngleTorsion Coeffs  # class2

1         0.00000000      0.00000000      0.00000000      0.00000000      0.00000000      0.00000000    111.00000000    120.05000000 #  cp         c         cp         cp   
2         0.00000000      0.00000000      0.00000000      0.00000000      0.00000000      0.00000000    109.50000000    120.05000000 #  o_1        c         cp         cp   
3         1.97670000      1.02390000      0.00000000      1.97670000      1.02390000      0.00000000    118.90000000    118.90000000 #  cp         cp        cp         cp   
4         0.00000000     -4.46830000      0.00000000      0.00000000      3.89870000      0.00000000    120.05000000    118.90000000 #  c          cp        cp         cp   

AngleAngle Coeffs  # class2

1         0.00000000      0.00000000      0.00000000    120.05000000    118.90000000    120.05000000 #  c          cp        cp        cp      nb==3   
2         0.00000000      0.00000000      0.00000000    118.90000000    118.90000000    118.90000000 #  cp         cp        cp        cp      nb==3   
3         0.00000000      0.00000000      0.00000000    111.00000000    111.00000000    111.00000000 #  cp         c         cp        cp      nb!=3   
4         0.00000000      0.00000000      0.00000000    111.00000000    109.50000000    109.50000000 #  cp         c         cp       o_1      nb!=3   

Atoms # full

  1     1   2    0.000000   -23.885121467   -22.720000000   -5.031000000      0    0    0 #  cp/C
  2     1   2    0.000000   -22.655365394   -22.010000000   -5.031000000      0    0    0 #  cp/C
  3     1   2    0.000000   -22.655365394   -20.590000000   -5.031000000      0    0    0 #  cp/C
  4     1   2    0.000000   -23.885121467   -19.880000000   -5.031000000      0    0    0 #  cp/C
  5     1   2    0.000000   -23.885121467   -18.460000000   -5.031000000      0    0    0 #  cp/C
  6     1   2    0.000000   -22.655365394   -17.750000000   -5.031000000      0    0    0 #  cp/C
  7     1   2    0.000000   -22.655365394   -16.330000000   -5.031000000      0    0    0 #  cp/C
  8     1   2    0.000000   -23.885121467   -15.620000000   -5.031000000      0    0    0 #  cp/C
  9     1   2    0.000000   -23.885121467   -14.200000000   -5.031000000      0    0    0 #  cp/C
  10    1   2    0.000000   -22.655365394   -13.490000000   -5.031000000      0    0    0 #  cp/C
  11    1   2    0.000000   -22.655365394   -12.070000000   -5.031000000      0    0    0 #  cp/C
  12    1   2    0.000000   -23.885121467   -11.360000000   -5.031000000      0    0    0 #  cp/C
  13    1   2    0.000000   -23.885121467   -9.940000000    -5.031000000      0    0    0 #  cp/C
  14    1   2    0.000000   -22.655365394   -9.230000000    -5.031000000      0    0    0 #  cp/C
  15    1   2    0.000000   -22.655365394   -7.810000000    -5.031000000      0    0    0 #  cp/C
  16    1   2    0.000000   -23.885121467   -7.100000000    -5.031000000      0    0    0 #  cp/C
  17    1   2    0.000000   -23.885121467   -5.680000000    -5.031000000      0    0    0 #  cp/C
  18    1   2    0.000000   -22.655365394   -4.970000000    -5.031000000      0    0    0 #  cp/C
  19    1   2    0.000000   -22.655365394   -3.550000000    -5.031000000      0    0    0 #  cp/C
  20    1   2    0.000000   -23.885121467   -2.840000000    -5.031000000      0    0    0 #  cp/C
  21    1   2    0.000000   -23.885121467   -1.420000000    -5.031000000      0    0    0 #  cp/C
  22    1   2    0.000000   -22.655365394   -0.710000000    -5.031000000      0    0    0 #  cp/C
  23    1   2    0.000000   -22.655365394    0.710000000    -5.031000000      0    0    0 #  cp/C
  24    1   2    0.000000   -23.885121467    1.420000000    -5.031000000      0    0    0 #  cp/C
  25    1   2    0.000000   -23.885121467    2.840000000    -5.031000000      0    0    0 #  cp/C
  26    1   2    0.000000   -22.655365394    3.550000000    -5.031000000      0    0    0 #  cp/C
  27    1   2    0.000000   -22.655365394    4.970000000    -5.031000000      0    0    0 #  cp/C
  28    1   2    0.000000   -23.885121467    5.680000000    -5.031000000      0    0    0 #  cp/C
  29    1   2    0.000000   -23.885121467    7.100000000    -5.031000000      0    0    0 #  cp/C
  30    1   2    0.000000   -22.655365394    7.810000000    -5.031000000      0    0    0 #  cp/C
  31    1   2    0.000000   -22.655365394    9.230000000    -5.031000000      0    0    0 #  cp/C
  32    1   2    0.000000   -23.885121467    9.940000000    -5.031000000      0    0    0 #  cp/C
  33    1   2    0.000000   -23.885121467   11.360000000    -5.031000000      0    0    0 #  cp/C
  34    1   2    0.000000   -22.655365394   12.070000000    -5.031000000      0    0    0 #  cp/C
  35    1   2    0.000000   -22.655365394   13.490000000    -5.031000000      0    0    0 #  cp/C
  36    1   2    0.000000   -23.885121467   14.200000000    -5.031000000      0    0    0 #  cp/C
  37    1   2    0.000000   -23.885121467   15.620000000    -5.031000000      0    0    0 #  cp/C
  38    1   2    0.000000   -22.655365394   16.330000000    -5.031000000      0    0    0 #  cp/C
  39    1   2    0.000000   -22.655365394   17.750000000    -5.031000000      0    0    0 #  cp/C
  40    1   2    0.000000   -23.885121467   18.460000000    -5.031000000      0    0    0 #  cp/C
  41    1   2    0.000000   -23.885121467   19.880000000    -5.031000000      0    0    0 #  cp/C
  42    1   2    0.000000   -22.655365394   20.590000000    -5.031000000      0    0    0 #  cp/C
  43    1   2    0.000000   -22.655365394   22.010000000    -5.031000000      0    0    0 #  cp/C
  44    1   2    0.000000   -23.885121467   22.720000000    -5.031000000      0    0    0 #  cp/C
  45    1   2    0.000000   -21.425609321   -22.720000000   -5.031000000      0    0    0 #  cp/C
  46    1   2    0.000000   -20.195853247   -22.010000000   -5.031000000      0    0    0 #  cp/C
  47    1   2    0.000000   -20.195853247   -20.590000000   -5.031000000      0    0    0 #  cp/C
  48    1   2    0.000000   -21.425609321   -19.880000000   -5.031000000      0    0    0 #  cp/C
  49    1   2    0.000000   -21.425609321   -18.460000000   -5.031000000      0    0    0 #  cp/C
  50    1   2    0.000000   -20.195853247   -17.750000000   -5.031000000      0    0    0 #  cp/C
  51    1   2    0.000000   -20.195853247   -16.330000000   -5.031000000      0    0    0 #  cp/C
  52    1   2    0.000000   -21.425609321   -15.620000000   -5.031000000      0    0    0 #  cp/C
  53    1   2    0.000000   -21.425609321   -14.200000000   -5.031000000      0    0    0 #  cp/C
  54    1   2    0.000000   -20.195853247   -13.490000000   -5.031000000      0    0    0 #  cp/C
  55    1   2    0.000000   -20.195853247   -12.070000000   -5.031000000      0    0    0 #  cp/C
  56    1   2    0.000000   -21.425609321   -11.360000000   -5.031000000      0    0    0 #  cp/C
  57    1   2    0.000000   -21.425609321   -9.940000000    -5.031000000      0    0    0 #  cp/C
  58    1   2    0.000000   -20.195853247   -9.230000000    -5.031000000      0    0    0 #  cp/C
  59    1   2    0.000000   -20.195853247   -7.810000000    -5.031000000      0    0    0 #  cp/C
  60    1   2    0.000000   -21.425609321   -7.100000000    -5.031000000      0    0    0 #  cp/C
  61    1   2    0.000000   -21.425609321   -5.680000000    -5.031000000      0    0    0 #  cp/C
  62    1   2    0.000000   -20.195853247   -4.970000000    -5.031000000      0    0    0 #  cp/C
  63    1   2    0.000000   -20.195853247   -3.550000000    -5.031000000      0    0    0 #  cp/C
  64    1   2    0.000000   -21.425609321   -2.840000000    -5.031000000      0    0    0 #  cp/C
  65    1   2    0.000000   -21.425609321   -1.420000000    -5.031000000      0    0    0 #  cp/C
  66    1   2    0.000000   -20.195853247   -0.710000000    -5.031000000      0    0    0 #  cp/C
  67    1   2    0.000000   -20.195853247    0.710000000    -5.031000000      0    0    0 #  cp/C
  68    1   2    0.000000   -21.425609321    1.420000000    -5.031000000      0    0    0 #  cp/C
  69    1   2    0.000000   -21.425609321    2.840000000    -5.031000000      0    0    0 #  cp/C
  70    1   2    0.000000   -20.195853247    3.550000000    -5.031000000      0    0    0 #  cp/C
  71    1   2    0.000000   -20.195853247    4.970000000    -5.031000000      0    0    0 #  cp/C
  72    1   2    0.000000   -21.425609321    5.680000000    -5.031000000      0    0    0 #  cp/C
  73    1   2    0.000000   -21.425609321    7.100000000    -5.031000000      0    0    0 #  cp/C
  74    1   2    0.000000   -20.195853247    7.810000000    -5.031000000      0    0    0 #  cp/C
  75    1   2    0.000000   -20.195853247    9.230000000    -5.031000000      0    0    0 #  cp/C
  76    1   2    0.000000   -21.425609321    9.940000000    -5.031000000      0    0    0 #  cp/C
  77    1   2    0.000000   -21.425609321   11.360000000    -5.031000000      0    0    0 #  cp/C
  78    1   2    0.000000   -20.195853247   12.070000000    -5.031000000      0    0    0 #  cp/C
  79    1   2    0.000000   -20.195853247   13.490000000    -5.031000000      0    0    0 #  cp/C
  80    1   2    0.000000   -21.425609321   14.200000000    -5.031000000      0    0    0 #  cp/C
  81    1   2    0.000000   -21.425609321   15.620000000    -5.031000000      0    0    0 #  cp/C
  82    1   2    0.000000   -20.195853247   16.330000000    -5.031000000      0    0    0 #  cp/C
  83    1   2    0.000000   -20.195853247   17.750000000    -5.031000000      0    0    0 #  cp/C
  84    1   2    0.000000   -21.425609321   18.460000000    -5.031000000      0    0    0 #  cp/C
  85    1   2    0.000000   -21.425609321   19.880000000    -5.031000000      0    0    0 #  cp/C
  86    1   2    0.000000   -20.195853247   20.590000000    -5.031000000      0    0    0 #  cp/C
  87    1   2    0.000000   -20.195853247   22.010000000    -5.031000000      0    0    0 #  cp/C
  88    1   2    0.000000   -21.425609321   22.720000000    -5.031000000      0    0    0 #  cp/C
  89    1   2    0.000000   -18.966097174   -22.720000000   -5.031000000      0    0    0 #  cp/C
  90    1   2    0.000000   -17.736341101   -22.010000000   -5.031000000      0    0    0 #  cp/C
  91    1   2    0.000000   -17.736341101   -20.590000000   -5.031000000      0    0    0 #  cp/C
  92    1   2    0.000000   -18.966097174   -19.880000000   -5.031000000      0    0    0 #  cp/C
  93    1   1    0.000000   -18.966097174   -18.460000000   -5.031000000      0    0    0 #  c/C
  94    1   2    0.000000   -17.736341101   -17.750000000   -5.031000000      0    0    0 #  cp/C
  95    1   2    0.000000   -17.736341101   -16.330000000   -5.031000000      0    0    0 #  cp/C
  96    1   2    0.000000   -18.966097174   -15.620000000   -5.031000000      0    0    0 #  cp/C
  97    1   2    0.000000   -18.966097174   -14.200000000   -5.031000000      0    0    0 #  cp/C
  98    1   2    0.000000   -17.736341101   -13.490000000   -5.031000000      0    0    0 #  cp/C
  99    1   2    0.000000   -17.736341101   -12.070000000   -5.031000000      0    0    0 #  cp/C
 100    1   2    0.000000   -18.966097174   -11.360000000   -5.031000000      0    0    0 #  cp/C
 101    1   2    0.000000   -18.966097174   -9.940000000    -5.031000000      0    0    0 #  cp/C
 102    1   2    0.000000   -17.736341101   -9.230000000    -5.031000000      0    0    0 #  cp/C
 103    1   2    0.000000   -17.736341101   -7.810000000    -5.031000000      0    0    0 #  cp/C
 104    1   2    0.000000   -18.966097174   -7.100000000    -5.031000000      0    0    0 #  cp/C
 105    1   1    0.000000   -18.966097174   -5.680000000    -5.031000000      0    0    0 #  c/C
 106    1   2    0.000000   -17.736341101   -4.970000000    -5.031000000      0    0    0 #  cp/C
 107    1   2    0.000000   -17.736341101   -3.550000000    -5.031000000      0    0    0 #  cp/C
 108    1   2    0.000000   -18.966097174   -2.840000000    -5.031000000      0    0    0 #  cp/C
 109    1   2    0.000000   -18.966097174   -1.420000000    -5.031000000      0    0    0 #  cp/C
 110    1   2    0.000000   -17.736341101   -0.710000000    -5.031000000      0    0    0 #  cp/C
 111    1   2    0.000000   -17.736341101    0.710000000    -5.031000000      0    0    0 #  cp/C
 112    1   2    0.000000   -18.966097174    1.420000000    -5.031000000      0    0    0 #  cp/C
 113    1   2    0.000000   -18.966097174    2.840000000    -5.031000000      0    0    0 #  cp/C
 114    1   2    0.000000   -17.736341101    3.550000000    -5.031000000      0    0    0 #  cp/C
 115    1   2    0.000000   -17.736341101    4.970000000    -5.031000000      0    0    0 #  cp/C
 116    1   1    0.000000   -18.966097174    5.680000000    -5.031000000      0    0    0 #  c/C
 117    1   2    0.000000   -18.966097174    7.100000000    -5.031000000      0    0    0 #  cp/C
 118    1   2    0.000000   -17.736341101    7.810000000    -5.031000000      0    0    0 #  cp/C
 119    1   2    0.000000   -17.736341101    9.230000000    -5.031000000      0    0    0 #  cp/C
 120    1   2    0.000000   -18.966097174    9.940000000    -5.031000000      0    0    0 #  cp/C
 121    1   2    0.000000   -18.966097174   11.360000000    -5.031000000      0    0    0 #  cp/C
 122    1   2    0.000000   -17.736341101   12.070000000    -5.031000000      0    0    0 #  cp/C
 123    1   2    0.000000   -17.736341101   13.490000000    -5.031000000      0    0    0 #  cp/C
 124    1   2    0.000000   -18.966097174   14.200000000    -5.031000000      0    0    0 #  cp/C
 125    1   2    0.000000   -18.966097174   15.620000000    -5.031000000      0    0    0 #  cp/C
 126    1   2    0.000000   -17.736341101   16.330000000    -5.031000000      0    0    0 #  cp/C
 127    1   2    0.000000   -17.736341101   17.750000000    -5.031000000      0    0    0 #  cp/C
 128    1   1    0.000000   -18.966097174   18.460000000    -5.031000000      0    0    0 #  c/C
 129    1   2    0.000000   -18.966097174   19.880000000    -5.031000000      0    0    0 #  cp/C
 130    1   2    0.000000   -17.736341101   20.590000000    -5.031000000      0    0    0 #  cp/C
 131    1   2    0.000000   -17.736341101   22.010000000    -5.031000000      0    0    0 #  cp/C
 132    1   2    0.000000   -18.966097174   22.720000000    -5.031000000      0    0    0 #  cp/C
 133    1   2    0.000000   -16.506585027   -22.720000000   -5.031000000      0    0    0 #  cp/C
 134    1   2    0.000000   -15.276828954   -22.010000000   -5.031000000      0    0    0 #  cp/C
 135    1   2    0.000000   -15.276828954   -20.590000000   -5.031000000      0    0    0 #  cp/C
 136    1   2    0.000000   -16.506585027   -19.880000000   -5.031000000      0    0    0 #  cp/C
 137    1   2    0.000000   -16.506585027   -18.460000000   -5.031000000      0    0    0 #  cp/C
 138    1   2    0.000000   -15.276828954   -17.750000000   -5.031000000      0    0    0 #  cp/C
 139    1   2    0.000000   -15.276828954   -16.330000000   -5.031000000      0    0    0 #  cp/C
 140    1   2    0.000000   -16.506585027   -15.620000000   -5.031000000      0    0    0 #  cp/C
 141    1   2    0.000000   -16.506585027   -14.200000000   -5.031000000      0    0    0 #  cp/C
 142    1   2    0.000000   -15.276828954   -13.490000000   -5.031000000      0    0    0 #  cp/C
 143    1   2    0.000000   -15.276828954   -12.070000000   -5.031000000      0    0    0 #  cp/C
 144    1   2    0.000000   -16.506585027   -11.360000000   -5.031000000      0    0    0 #  cp/C
 145    1   2    0.000000   -16.506585027   -9.940000000    -5.031000000      0    0    0 #  cp/C
 146    1   2    0.000000   -15.276828954   -9.230000000    -5.031000000      0    0    0 #  cp/C
 147    1   2    0.000000   -15.276828954   -7.810000000    -5.031000000      0    0    0 #  cp/C
 148    1   2    0.000000   -16.506585027   -7.100000000    -5.031000000      0    0    0 #  cp/C
 149    1   2    0.000000   -16.506585027   -5.680000000    -5.031000000      0    0    0 #  cp/C
 150    1   2    0.000000   -15.276828954   -4.970000000    -5.031000000      0    0    0 #  cp/C
 151    1   2    0.000000   -15.276828954   -3.550000000    -5.031000000      0    0    0 #  cp/C
 152    1   2    0.000000   -16.506585027   -2.840000000    -5.031000000      0    0    0 #  cp/C
 153    1   2    0.000000   -16.506585027   -1.420000000    -5.031000000      0    0    0 #  cp/C
 154    1   2    0.000000   -15.276828954   -0.710000000    -5.031000000      0    0    0 #  cp/C
 155    1   2    0.000000   -15.276828954    0.710000000    -5.031000000      0    0    0 #  cp/C
 156    1   2    0.000000   -16.506585027    1.420000000    -5.031000000      0    0    0 #  cp/C
 157    1   2    0.000000   -16.506585027    2.840000000    -5.031000000      0    0    0 #  cp/C
 158    1   2    0.000000   -15.276828954    3.550000000    -5.031000000      0    0    0 #  cp/C
 159    1   2    0.000000   -15.276828954    4.970000000    -5.031000000      0    0    0 #  cp/C
 160    1   2    0.000000   -16.506585027    5.680000000    -5.031000000      0    0    0 #  cp/C
 161    1   2    0.000000   -16.506585027    7.100000000    -5.031000000      0    0    0 #  cp/C
 162    1   2    0.000000   -15.276828954    7.810000000    -5.031000000      0    0    0 #  cp/C
 163    1   2    0.000000   -15.276828954    9.230000000    -5.031000000      0    0    0 #  cp/C
 164    1   2    0.000000   -16.506585027    9.940000000    -5.031000000      0    0    0 #  cp/C
 165    1   2    0.000000   -16.506585027   11.360000000    -5.031000000      0    0    0 #  cp/C
 166    1   2    0.000000   -15.276828954   12.070000000    -5.031000000      0    0    0 #  cp/C
 167    1   2    0.000000   -15.276828954   13.490000000    -5.031000000      0    0    0 #  cp/C
 168    1   2    0.000000   -16.506585027   14.200000000    -5.031000000      0    0    0 #  cp/C
 169    1   2    0.000000   -16.506585027   15.620000000    -5.031000000      0    0    0 #  cp/C
 170    1   2    0.000000   -15.276828954   16.330000000    -5.031000000      0    0    0 #  cp/C
 171    1   2    0.000000   -15.276828954   17.750000000    -5.031000000      0    0    0 #  cp/C
 172    1   2    0.000000   -16.506585027   18.460000000    -5.031000000      0    0    0 #  cp/C
 173    1   2    0.000000   -16.506585027   19.880000000    -5.031000000      0    0    0 #  cp/C
 174    1   2    0.000000   -15.276828954   20.590000000    -5.031000000      0    0    0 #  cp/C
 175    1   2    0.000000   -15.276828954   22.010000000    -5.031000000      0    0    0 #  cp/C
 176    1   2    0.000000   -16.506585027   22.720000000    -5.031000000      0    0    0 #  cp/C
 177    1   2    0.000000   -14.047072880   -22.720000000   -5.031000000      0    0    0 #  cp/C
 178    1   2    0.000000   -12.817316807   -22.010000000   -5.031000000      0    0    0 #  cp/C
 179    1   2    0.000000   -12.817316807   -20.590000000   -5.031000000      0    0    0 #  cp/C
 180    1   2    0.000000   -14.047072880   -19.880000000   -5.031000000      0    0    0 #  cp/C
 181    1   2    0.000000   -14.047072880   -18.460000000   -5.031000000      0    0    0 #  cp/C
 182    1   2    0.000000   -12.817316807   -17.750000000   -5.031000000      0    0    0 #  cp/C
 183    1   2    0.000000   -12.817316807   -16.330000000   -5.031000000      0    0    0 #  cp/C
 184    1   2    0.000000   -14.047072880   -15.620000000   -5.031000000      0    0    0 #  cp/C
 185    1   2    0.000000   -14.047072880   -14.200000000   -5.031000000      0    0    0 #  cp/C
 186    1   2    0.000000   -12.817316807   -13.490000000   -5.031000000      0    0    0 #  cp/C
 187    1   2    0.000000   -12.817316807   -12.070000000   -5.031000000      0    0    0 #  cp/C
 188    1   2    0.000000   -14.047072880   -11.360000000   -5.031000000      0    0    0 #  cp/C
 189    1   2    0.000000   -14.047072880   -9.940000000    -5.031000000      0    0    0 #  cp/C
 190    1   2    0.000000   -12.817316807   -9.230000000    -5.031000000      0    0    0 #  cp/C
 191    1   2    0.000000   -12.817316807   -7.810000000    -5.031000000      0    0    0 #  cp/C
 192    1   2    0.000000   -14.047072880   -7.100000000    -5.031000000      0    0    0 #  cp/C
 193    1   2    0.000000   -14.047072880   -5.680000000    -5.031000000      0    0    0 #  cp/C
 194    1   2    0.000000   -12.817316807   -4.970000000    -5.031000000      0    0    0 #  cp/C
 195    1   2    0.000000   -12.817316807   -3.550000000    -5.031000000      0    0    0 #  cp/C
 196    1   2    0.000000   -14.047072880   -2.840000000    -5.031000000      0    0    0 #  cp/C
 197    1   2    0.000000   -14.047072880   -1.420000000    -5.031000000      0    0    0 #  cp/C
 198    1   2    0.000000   -12.817316807   -0.710000000    -5.031000000      0    0    0 #  cp/C
 199    1   2    0.000000   -12.817316807    0.710000000    -5.031000000      0    0    0 #  cp/C
 200    1   2    0.000000   -14.047072880    1.420000000    -5.031000000      0    0    0 #  cp/C
 201    1   2    0.000000   -14.047072880    2.840000000    -5.031000000      0    0    0 #  cp/C
 202    1   2    0.000000   -12.817316807    3.550000000    -5.031000000      0    0    0 #  cp/C
 203    1   2    0.000000   -12.817316807    4.970000000    -5.031000000      0    0    0 #  cp/C
 204    1   2    0.000000   -14.047072880    5.680000000    -5.031000000      0    0    0 #  cp/C
 205    1   2    0.000000   -14.047072880    7.100000000    -5.031000000      0    0    0 #  cp/C
 206    1   2    0.000000   -12.817316807    7.810000000    -5.031000000      0    0    0 #  cp/C
 207    1   2    0.000000   -12.817316807    9.230000000    -5.031000000      0    0    0 #  cp/C
 208    1   2    0.000000   -14.047072880    9.940000000    -5.031000000      0    0    0 #  cp/C
 209    1   2    0.000000   -14.047072880   11.360000000    -5.031000000      0    0    0 #  cp/C
 210    1   2    0.000000   -12.817316807   12.070000000    -5.031000000      0    0    0 #  cp/C
 211    1   2    0.000000   -12.817316807   13.490000000    -5.031000000      0    0    0 #  cp/C
 212    1   2    0.000000   -14.047072880   14.200000000    -5.031000000      0    0    0 #  cp/C
 213    1   2    0.000000   -14.047072880   15.620000000    -5.031000000      0    0    0 #  cp/C
 214    1   2    0.000000   -12.817316807   16.330000000    -5.031000000      0    0    0 #  cp/C
 215    1   2    0.000000   -12.817316807   17.750000000    -5.031000000      0    0    0 #  cp/C
 216    1   2    0.000000   -14.047072880   18.460000000    -5.031000000      0    0    0 #  cp/C
 217    1   2    0.000000   -14.047072880   19.880000000    -5.031000000      0    0    0 #  cp/C
 218    1   2    0.000000   -12.817316807   20.590000000    -5.031000000      0    0    0 #  cp/C
 219    1   2    0.000000   -12.817316807   22.010000000    -5.031000000      0    0    0 #  cp/C
 220    1   2    0.000000   -14.047072880   22.720000000    -5.031000000      0    0    0 #  cp/C
 221    1   2    0.000000   -11.587560734   -22.720000000   -5.031000000      0    0    0 #  cp/C
 222    1   2    0.000000   -10.357804660   -22.010000000   -5.031000000      0    0    0 #  cp/C
 223    1   2    0.000000   -10.357804660   -20.590000000   -5.031000000      0    0    0 #  cp/C
 224    1   2    0.000000   -11.587560734   -19.880000000   -5.031000000      0    0    0 #  cp/C
 225    1   2    0.000000   -11.587560734   -18.460000000   -5.031000000      0    0    0 #  cp/C
 226    1   2    0.000000   -10.357804660   -17.750000000   -5.031000000      0    0    0 #  cp/C
 227    1   2    0.000000   -10.357804660   -16.330000000   -5.031000000      0    0    0 #  cp/C
 228    1   2    0.000000   -11.587560734   -15.620000000   -5.031000000      0    0    0 #  cp/C
 229    1   2    0.000000   -11.587560734   -14.200000000   -5.031000000      0    0    0 #  cp/C
 230    1   2    0.000000   -10.357804660   -13.490000000   -5.031000000      0    0    0 #  cp/C
 231    1   2    0.000000   -10.357804660   -12.070000000   -5.031000000      0    0    0 #  cp/C
 232    1   2    0.000000   -11.587560734   -11.360000000   -5.031000000      0    0    0 #  cp/C
 233    1   2    0.000000   -11.587560734   -9.940000000    -5.031000000      0    0    0 #  cp/C
 234    1   2    0.000000   -10.357804660   -9.230000000    -5.031000000      0    0    0 #  cp/C
 235    1   2    0.000000   -10.357804660   -7.810000000    -5.031000000      0    0    0 #  cp/C