HEADER,  ps.mol  read w/ mol2lmp > atom_typing v1.10 / 10 May 2024 w/PCFF-IFF atom-types > all2lmp: v1.19 / 5 June 2024  Class: 2

18 atoms
18 bonds
30 angles
39 dihedrals
14 impropers

4 atom types
6 bond types
9 angle types
9 dihedral types
7 improper types

-3.686105556 2.876894444 xlo xhi
-3.245283333 3.613916667 ylo yhi
-1.332427778 1.930372222 zlo zhi

Masses

1   12.01115000  #  c2   
2   12.01115000  #  c3   
3   12.01115000  #  cp   
4    1.00797000  #  hc   

Pair Coeffs  # lj/class2/coul/long

1         0.05400000      4.01000000 #  c2   
2         0.05400000      3.90000000 #  c3   
3         0.06400000      4.01000000 #  cp   
4         0.02000000      2.30000000 #  hc   

Bond Coeffs  # class2

1         1.53000000    299.67000000   -501.77000000    679.81000000 #  c2          c3   
2         1.50100000    321.90210000   -521.82080000    572.16280000 #  c2          cp   
3         1.10100000    345.00000000   -691.89000000    844.60000000 #  c2          hc   
4         1.10100000    345.00000000   -691.89000000    844.60000000 #  c3          hc   
5         1.41700000    470.83610000   -627.61790000   1327.63450000 #  cp          cp   
6         1.09820000    372.82510000   -803.45260000    894.31730000 #  cp          hc   

Angle Coeffs  # class2

1       110.77000000     41.45300000    -10.60400000      5.12900000 #  c2         c3         hc   
2       120.05000000     44.71480000    -22.73520000      0.00000000 #  c2         cp         cp   
3       108.40000000     43.95940000     -8.39240000     -9.33790000 #  c3         c2         cp   
4       110.77000000     41.45300000    -10.60400000      5.12900000 #  c3         c2         hc   
5       111.00000000     44.32340000     -9.44540000      0.00000000 #  cp         c2         hc   
6       118.90000000     61.02260000    -34.99310000      0.00000000 #  cp         cp         cp   
7       117.94000000     35.15580000    -12.46820000      0.00000000 #  cp         cp         hc   
8       107.66000000     39.64100000    -12.92100000     -2.43180000 #  hc         c2         hc   
9       107.66000000     39.64100000    -12.92100000     -2.43180000 #  hc         c3         hc   

Dihedral Coeffs  # class2

1        -0.14320000      0.00000000      0.06170000      0.00000000     -0.10830000      0.00000000 #  hc         c2        c3         hc   
2        -0.02280000      0.00000000      0.02800000      0.00000000     -0.18630000      0.00000000 #  cp         c2        c3         hc   
3        -0.28020000      0.00000000     -0.06780000      0.00000000     -0.01220000      0.00000000 #  c3         c2        cp         cp   
4        -0.28010000      0.00000000     -0.06780000      0.00000000     -0.01220000      0.00000000 #  hc         c2        cp         cp   
5         0.00000000      0.00000000      4.40720000      0.00000000      0.00000000      0.00000000 #  c2         cp        cp         cp   
6         8.36670000      0.00000000      1.19320000      0.00000000      0.00000000      0.00000000 #  cp         cp        cp         cp   
7         0.00000000      0.00000000      1.87690000      0.00000000      0.00000000      0.00000000 #  hc         cp        cp         hc   
8         0.00000000      0.00000000      1.55900000      0.00000000      0.00000000      0.00000000 #  c2         cp        cp         hc   
9         0.00000000      0.00000000      3.96610000      0.00000000      0.00000000      0.00000000 #  cp         cp        cp         hc   

Improper Coeffs  # class2

1         7.81530000      0.00000000 #  c2         cp        cp        cp      nb==3   
2         4.89120000      0.00000000 #  cp         cp        cp        hc      nb==3   
3         0.00000000      0.00000000 #  c2         c3        hc        hc      nb!=3   
4         0.00000000      0.00000000 #  c3         c2        cp        hc      nb!=3   
5         0.00000000      0.00000000 #  c3         c2        hc        hc      nb!=3   
6         0.00000000      0.00000000 #  cp         c2        hc        hc      nb!=3   
7         0.00000000      0.00000000 #  hc         c3        hc        hc      nb!=3   

BondBond Coeffs  # class2

1         3.38720000      1.53000000      1.10100000 #  c2         c3         hc   
2        12.06760000      1.50100000      1.41700000 #  c2         cp         cp   
3         0.00000000      1.53000000      1.50100000 #  c3         c2         cp   
4         3.38720000      1.53000000      1.10100000 #  c3         c2         hc   
5         2.91680000      1.50100000      1.10100000 #  cp         c2         hc   
6        68.28560000      1.41700000      1.41700000 #  cp         cp         cp   
7         1.07950000      1.41700000      1.09820000 #  cp         cp         hc   
8         5.33160000      1.10100000      1.10100000 #  hc         c2         hc   
9         5.33160000      1.10100000      1.10100000 #  hc         c3         hc   

BondAngle Coeffs  # class2

1        20.75400000     11.42100000      1.53000000      1.10100000 #  c2         c3         hc   
2        47.05790000     31.07710000      1.50100000      1.41700000 #  c2         cp         cp   
3         0.00000000      0.00000000      1.53000000      1.50100000 #  c3         c2         cp   
4        20.75400000     11.42100000      1.53000000      1.10100000 #  c3         c2         hc   
5        26.46080000     11.77170000      1.50100000      1.10100000 #  cp         c2         hc   
6        28.87080000     28.87080000      1.41700000      1.41700000 #  cp         cp         cp   
7        20.00330000     24.21830000      1.41700000      1.09820000 #  cp         cp         hc   
8        18.10300000     18.10300000      1.10100000      1.10100000 #  hc         c2         hc   
9        18.10300000     18.10300000      1.10100000      1.10100000 #  hc         c3         hc   

AngleAngleTorsion Coeffs  # class2

1       -12.56400000    110.77000000    110.77000000 #  hc         c2        c3         hc   
2         0.00000000    108.40000000    110.77000000 #  cp         c2        c3         hc   
3         0.00000000    108.40000000    120.05000000 #  c3         c2        cp         cp   
4        -5.88880000    111.00000000    120.05000000 #  hc         c2        cp         cp   
5       -14.40970000    120.05000000    118.90000000 #  c2         cp        cp         cp   
6         0.00000000    118.90000000    118.90000000 #  cp         cp        cp         cp   
7         0.35980000    117.94000000    117.94000000 #  hc         cp        cp         hc   
8         4.44440000    120.05000000    117.94000000 #  c2         cp        cp         hc   
9        -4.81410000    118.90000000    117.94000000 #  cp         cp        cp         hc   

EndBondTorsion Coeffs  # class2

1         0.21300000      0.31200000      0.07770000      0.21300000      0.31200000      0.07770000      1.10100000      1.10100000 #  hc         c2        c3         hc   
2         0.00000000      0.00000000      0.00000000      0.00000000      0.00000000      0.00000000      1.50100000      1.10100000 #  cp         c2        c3         hc   
3         0.00000000      0.00000000      0.00000000      0.00000000      0.00000000      0.00000000      1.53000000      1.41700000 #  c3         c2        cp         cp   
4         1.39970000      0.77560000      0.00000000     -0.58350000      1.12200000      0.39780000      1.10100000      1.41700000 #  hc         c2        cp         cp   
5         0.00000000      0.24210000      0.00000000      0.00000000     -0.69180000      0.00000000      1.50100000      1.41700000 #  c2         cp        cp         cp   
6        -0.11850000      6.32040000      0.00000000     -0.11850000      6.32040000      0.00000000      1.41700000      1.41700000 #  cp         cp        cp         cp   
7         0.00000000     -0.68900000      0.00000000      0.00000000     -0.68900000      0.00000000      1.09820000      1.09820000 #  hc         cp        cp         hc   
8         0.00000000     -1.79700000      0.00000000      0.00000000     -0.48790000      0.00000000      1.50100000      1.09820000 #  c2         cp        cp         hc   
9         0.00000000     -6.89580000      0.00000000      0.00000000     -0.46690000      0.00000000      1.41700000      1.09820000 #  cp         cp        cp         hc   

MiddleBondTorsion Coeffs  # class2

1       -14.26100000     -0.53220000     -0.48640000      1.53000000 #  hc         c2        c3         hc   
2         0.00000000      0.00000000      0.00000000      1.53000000 #  cp         c2        c3         hc   
3         0.00000000      0.00000000      0.00000000      1.50100000 #  c3         c2        cp         cp   
4        -5.56790000      1.40830000      0.30100000      1.50100000 #  hc         c2        cp         cp   
5         0.00000000      9.17920000      0.00000000      1.41700000 #  c2         cp        cp         cp   
6        27.59890000     -2.31200000      0.00000000      1.41700000 #  cp         cp        cp         cp   
7         0.00000000      4.82280000      0.00000000      1.41700000 #  hc         cp        cp         hc   
8         0.00000000      3.94210000      0.00000000      1.41700000 #  c2         cp        cp         hc   
9         0.00000000     -1.15210000      0.00000000      1.41700000 #  cp         cp        cp         hc   

BondBond13 Coeffs  # class2

1         0.00000000      1.10100000      1.10100000 #  hc         c2        c3         hc   
2         0.00000000      1.50100000      1.10100000 #  cp         c2        c3         hc   
3         0.00000000      1.53000000      1.41700000 #  c3         c2        cp         cp   
4        -3.48260000      1.10100000      1.41700000 #  hc         c2        cp         cp   
5         2.50850000      1.50100000      1.41700000 #  c2         cp        cp         cp   
6        53.00000000      1.41700000      1.41700000 #  cp         cp        cp         cp   
7        -1.70770000      1.09820000      1.09820000 #  hc         cp        cp         hc   
8         0.87430000      1.50100000      1.09820000 #  c2         cp        cp         hc   
9        -6.27410000      1.41700000      1.09820000 #  cp         cp        cp         hc   

AngleTorsion Coeffs  # class2

1        -0.80850000      0.55690000     -0.24660000     -0.80850000      0.55690000     -0.24660000    110.77000000    110.77000000 #  hc         c2        c3         hc   
2         0.00000000      0.00000000      0.00000000      0.00000000      0.00000000      0.00000000    108.40000000    110.77000000 #  cp         c2        c3         hc   
3         0.00000000      0.00000000      0.00000000      0.00000000      0.00000000      0.00000000    108.40000000    120.05000000 #  c3         c2        cp         cp   
4         4.62660000      0.16320000      0.04610000      0.22510000      0.65480000      0.12370000    111.00000000    120.05000000 #  hc         c2        cp         cp   
5         0.00000000     -4.46830000      0.00000000      0.00000000      3.89870000      0.00000000    120.05000000    118.90000000 #  c2         cp        cp         cp   
6         1.97670000      1.02390000      0.00000000      1.97670000      1.02390000      0.00000000    118.90000000    118.90000000 #  cp         cp        cp         cp   
7         0.00000000      2.45010000      0.00000000      0.00000000      2.45010000      0.00000000    117.94000000    117.94000000 #  hc         cp        cp         hc   
8         0.00000000     -0.12420000      0.00000000      0.00000000      3.46010000      0.00000000    120.05000000    117.94000000 #  c2         cp        cp         hc   
9         0.00000000      2.50140000      0.00000000      0.00000000      2.71470000      0.00000000    118.90000000    117.94000000 #  cp         cp        cp         hc   

AngleAngle Coeffs  # class2

1         0.00000000      0.00000000      0.00000000    120.05000000    118.90000000    120.05000000 #  c2         cp        cp        cp      nb==3   
2         0.00000000      0.00000000      0.00000000    118.90000000    117.94000000    117.94000000 #  cp         cp        cp        hc      nb==3   
3         0.27380000     -0.48250000      0.27380000    110.77000000    110.77000000    107.66000000 #  c2         c3        hc        hc      nb!=3   
4         2.04030000     -1.82020000      1.08270000    108.40000000    110.77000000    111.00000000 #  c3         c2        cp        hc      nb!=3   
5         0.27380000     -0.48250000      0.27380000    110.77000000    110.77000000    107.66000000 #  c3         c2        hc        hc      nb!=3   
6         2.37940000      3.01180000      2.37940000    111.00000000    111.00000000    107.66000000 #  cp         c2        hc        hc      nb!=3   
7        -0.31570000     -0.31570000     -0.31570000    107.66000000    107.66000000    107.66000000 #  hc         c3        hc        hc      nb!=3   

Atoms # full

  1     1   3   -0.126800    0.016894444     2.019616667    -0.538127778      0    0    0 #  cp/C
  2     1   3   -0.126800    0.575894444     0.840216667    -0.222927778      0    0    0 #  cp/C
  3     1   3    0.000000   -0.181005556    -0.235583333     0.062572222      0    0    0 #  cp/C
  4     1   3   -0.126800   -1.519105556    -0.089783333     0.021672222      0    0    0 #  cp/C
  5     1   3   -0.126800   -2.087505556     1.084716667    -0.292127778      0    0    0 #  cp/C
  6     1   3   -0.126800   -1.317805556     2.145916667    -0.573827778      0    0    0 #  cp/C
  7     1   1   -0.106000    0.396994444    -1.590683333     0.424472222      0    0    0 #  c2/C
  8     1   2   -0.159000    1.926194444    -1.709983333     0.458372222      0    0    0 #  c3/C
  9     1   4    0.126800    0.655394444     2.889116667    -0.768827778      0    0    0 #  hc/H
  10    1   4    0.126800    1.674994444     0.781216667    -0.205527778      0    0    0 #  hc/H
  11    1   4    0.126800   -2.168405556    -0.951683333     0.250372222      0    0    0 #  hc/H
  12    1   4    0.126800   -3.186105556     1.178216667    -0.318727778      0    0    0 #  hc/H
  13    1   4    0.126800   -1.778305556     3.113916667    -0.832427778      0    0    0 #  hc/H
  14    1   4    0.053000    0.002294444    -1.873983333     1.430372222      0    0    0 #  hc/H
  15    1   4    0.053000    0.004694444    -2.337283333    -0.307927778      0    0    0 #  hc/H
  16    1   4    0.053000    2.233494444    -2.745283333     0.734772222      0    0    0 #  hc/H
  17    1   4    0.053000    2.376894444    -1.492783333    -0.536927778      0    0    0 #  hc/H
  18    1   4    0.053000    2.374494444    -1.025883333     1.214772222      0    0    0 #  hc/H

Bonds

  1   5     1     2  
  2   5     1     6  
  3   6     1     9  
  4   5     2     3  
  5   6     2    10  
  6   5     3     4  
  7   2     7     3  
  8   5     4     5  
  9   6     4    11  
 10   5     5     6  
 11   6     5    12  
 12   6     6    13  
 13   1     7     8  
 14   3     7    14  
 15   3     7    15  
 16   4     8    16  
 17   4     8    17  
 18   4     8    18  

Angles

  1   6     2     1     6  
  2   7     2     1     9  
  3   7     6     1     9  
  4   7     3     2    10  
  5   7     1     2    10  
  6   6     1     2     3  
  7   2     7     3     4  
  8   6     2     3     4  
  9   2     7     3     2  
 10   7     5     4    11  
 11   6     3     4     5  
 12   7     3     4    11  
 13   6     4     5     6  
 14   7     4     5    12  
 15   7     6     5    12  
 16   6     1     6     5  
 17   7     5     6    13  
 18   7     1     6    13  
 19   4     8     7    14  
 20   5     3     7    15  
 21   3     8     7     3  
 22   5     3     7    14  
 23   8    14     7    15  
 24   4     8     7    15  
 25   9    16     8    17  
 26   1     7     8    16  
 27   9    17     8    18  
 28   1     7     8    18  
 29   9    16     8    18  
 30   1     7     8    17  

Dihedrals

  1   9     2     1     6    13  
  2   9     6     1     2    10  
  3   7     9     1     2    10  
  4   6     2     1     6     5  
  5   7     9     1     6    13  
  6   6     3     2     1     6  
  7   9     3     2     1     9  
  8   6     1     2     3     4  
  9   5     7     3     2     1  
 10   3     8     7     3     2  
 11   4    14     7     3     2  
 12   8     7     3     2    10  
 13   9     4     3     2    10  
 14   4    15     7     3     4  
 15   6     2     3     4     5  
 16   9     2     3     4    11  
 17   3     8     7     3     4  
 18   4    14     7     3     4  
 19   4    15     7     3     2  
 20   8     7     3     4    11  
 21   5     7     3     4     5  
 22   6     3     4     5     6  
 23   9     3     4     5    12  
 24   7    11     4     5    12  
 25   9     4     5     6    13  
 26   7    12     5     6    13  
 27   9     6     5     4    11  
 28   6     1     6     5     4  
 29   9     5     6     1     9  
 30   9     1     6     5    12  
 31   1    15     7     8    16  
 32   2     3     7     8    17  
 33   1    14     7     8    17  
 34   1    14     7     8    18  
 35   1    15     7     8    18  
 36   1    14     7     8    16  
 37   2     3     7     8    16  
 38   1    15     7     8    17  
 39   2     3     7     8    18  

Impropers

  1   2     2     1     6     9  
  2   2     1     2     3    10  
  3   1     7     3     2     4  
  4   2     3     4     5    11  
  5   2     4     5     6    12  
  6   2     1     6     5    13  
  7   5     8     7    14    15  
  8   4     8     7     3    14  
  9   6     3     7    14    15  
 10   4     8     7     3    15  
 11   7    16     8    17    18  
 12   3     7     8    16    18  
 13   3     7     8    17    18  
 14   3     7     8    16    17  
