HEADER,  r1_pre.mol  read w/ mol2lmp > atom_typing v1.10 / 10 May 2024 w/PCFF-IFF atom-types > all2lmp: v1.21 / 13 November 2024  Class: 2

21 atoms
19 bonds
30 angles
33 dihedrals
16 impropers

6 atom types
7 bond types
11 angle types
6 dihedral types
9 improper types

-7.645676190 7.216723810 xlo xhi
-2.646371429 3.415828571 ylo yhi
-1.270985714 1.783414286 zlo zhi

Masses

1   12.01115000  #  c    
2   12.01115000  #  c2   
3   12.01115000  #  c3   
4   12.01115000  #  cp   
5    1.00797000  #  hc   
6   15.99940000  #  o_1  

Pair Coeffs  # lj/class2/coul/long

1         0.05400000      4.01000000 #  c    
2         0.05400000      4.01000000 #  c2   
3         0.05400000      3.90000000 #  c3   
4         0.06400000      4.01000000 #  cp   
5         0.02000000      2.30000000 #  hc   
6         0.26700000      3.30000000 #  o_1  

Bond Coeffs  # class2

1         1.50100000    321.90210000   -521.82080000    572.16280000 #  c           cp   
2         1.38000000    318.94840000      0.00000000      0.00000000 #  c          o_1   
3         1.53000000    299.67000000   -501.77000000    679.81000000 #  c2          c3   
4         1.50100000    321.90210000   -521.82080000    572.16280000 #  c2          cp   
5         1.10100000    345.00000000   -691.89000000    844.60000000 #  c2          hc   
6         1.10100000    345.00000000   -691.89000000    844.60000000 #  c3          hc   
7         1.41700000    470.83610000   -627.61790000   1327.63450000 #  cp          cp   

Angle Coeffs  # class2

1       120.05000000     44.71480000    -22.73520000      0.00000000 #  c          cp         cp   
2       110.77000000     41.45300000    -10.60400000      5.12900000 #  c2         c3         hc   
3       120.05000000     44.71480000    -22.73520000      0.00000000 #  c2         cp         cp   
4       108.40000000     43.95940000     -8.39240000     -9.33790000 #  c3         c2         cp   
5       110.77000000     41.45300000    -10.60400000      5.12900000 #  c3         c2         hc   
6       111.00000000     44.32340000     -9.44540000      0.00000000 #  cp         c          cp   
7       109.50000000     46.00000000      0.00000000      0.00000000 #  o_1        c          cp   
8       111.00000000     44.32340000     -9.44540000      0.00000000 #  cp         c2         hc   
9       118.90000000     61.02260000    -34.99310000      0.00000000 #  cp         cp         cp   
10      107.66000000     39.64100000    -12.92100000     -2.43180000 #  hc         c2         hc   
11      107.66000000     39.64100000    -12.92100000     -2.43180000 #  hc         c3         hc   

Dihedral Coeffs  # class2

1        -0.28020000      0.00000000     -0.06780000      0.00000000     -0.01220000      0.00000000 #  cp         c         cp         cp   
2        -0.02280000      0.00000000      0.02800000      0.00000000     -0.18630000      0.00000000 #  cp         c2        c3         hc   
3        -0.14320000      0.00000000      0.06170000      0.00000000     -0.10830000      0.00000000 #  hc         c2        c3         hc   
4        -0.28020000      0.00000000     -0.06780000      0.00000000     -0.01220000      0.00000000 #  c3         c2        cp         cp   
5         0.00000000      0.00000000      0.00000000      0.00000000      0.00000000      0.00000000 #  o_1        c         cp         cp   
6        -0.28010000      0.00000000     -0.06780000      0.00000000     -0.01220000      0.00000000 #  hc         c2        cp         cp   

Improper Coeffs  # class2

1         7.81530000      0.00000000 #  c          cp        cp        cp      nb==3   
2         7.81530000      0.00000000 #  c2         cp        cp        cp      nb==3   
3         0.00000000      0.00000000 #  c2         c3        hc        hc      nb!=3   
4         0.00000000      0.00000000 #  c3         c2        cp        hc      nb!=3   
5         0.00000000      0.00000000 #  c3         c2        hc        hc      nb!=3   
6         0.00000000      0.00000000 #  cp         c         cp        cp      nb!=3   
7         0.00000000      0.00000000 #  cp         c         cp       o_1      nb!=3   
8         0.00000000      0.00000000 #  cp         c2        hc        hc      nb!=3   
9         0.00000000      0.00000000 #  hc         c3        hc        hc      nb!=3   

BondBond Coeffs  # class2

1        12.06760000      1.50100000      1.41700000 #  c          cp         cp   
2         3.38720000      1.53000000      1.10100000 #  c2         c3         hc   
3        12.06760000      1.50100000      1.41700000 #  c2         cp         cp   
4         0.00000000      1.53000000      1.50100000 #  c3         c2         cp   
5         3.38720000      1.53000000      1.10100000 #  c3         c2         hc   
6         0.00000000      1.50100000      1.50100000 #  cp         c          cp   
7         0.00000000      1.38000000      1.50100000 #  o_1        c          cp   
8         2.91680000      1.50100000      1.10100000 #  cp         c2         hc   
9        68.28560000      1.41700000      1.41700000 #  cp         cp         cp   
10        5.33160000      1.10100000      1.10100000 #  hc         c2         hc   
11        5.33160000      1.10100000      1.10100000 #  hc         c3         hc   

BondAngle Coeffs  # class2

1        47.05790000     31.07710000      1.50100000      1.41700000 #  c          cp         cp   
2        20.75400000     11.42100000      1.53000000      1.10100000 #  c2         c3         hc   
3        47.05790000     31.07710000      1.50100000      1.41700000 #  c2         cp         cp   
4         0.00000000      0.00000000      1.53000000      1.50100000 #  c3         c2         cp   
5        20.75400000     11.42100000      1.53000000      1.10100000 #  c3         c2         hc   
6         0.00000000      0.00000000      1.50100000      1.50100000 #  cp         c          cp   
7         0.00000000      0.00000000      1.38000000      1.50100000 #  o_1        c          cp   
8        26.46080000     11.77170000      1.50100000      1.10100000 #  cp         c2         hc   
9        28.87080000     28.87080000      1.41700000      1.41700000 #  cp         cp         cp   
10       18.10300000     18.10300000      1.10100000      1.10100000 #  hc         c2         hc   
11       18.10300000     18.10300000      1.10100000      1.10100000 #  hc         c3         hc   

AngleAngleTorsion Coeffs  # class2

1         0.00000000    111.00000000    120.05000000 #  cp         c         cp         cp   
2         0.00000000    108.40000000    110.77000000 #  cp         c2        c3         hc   
3       -12.56400000    110.77000000    110.77000000 #  hc         c2        c3         hc   
4         0.00000000    108.40000000    120.05000000 #  c3         c2        cp         cp   
5         0.00000000    109.50000000    120.05000000 #  o_1        c         cp         cp   
6        -5.88880000    111.00000000    120.05000000 #  hc         c2        cp         cp   

EndBondTorsion Coeffs  # class2

1         0.00000000      0.00000000      0.00000000      0.00000000      0.00000000      0.00000000      1.50100000      1.41700000 #  cp         c         cp         cp   
2         0.00000000      0.00000000      0.00000000      0.00000000      0.00000000      0.00000000      1.50100000      1.10100000 #  cp         c2        c3         hc   
3         0.21300000      0.31200000      0.07770000      0.21300000      0.31200000      0.07770000      1.10100000      1.10100000 #  hc         c2        c3         hc   
4         0.00000000      0.00000000      0.00000000      0.00000000      0.00000000      0.00000000      1.53000000      1.41700000 #  c3         c2        cp         cp   
5         0.00000000      0.00000000      0.00000000      0.00000000      0.00000000      0.00000000      1.38000000      1.41700000 #  o_1        c         cp         cp   
6         1.39970000      0.77560000      0.00000000     -0.58350000      1.12200000      0.39780000      1.10100000      1.41700000 #  hc         c2        cp         cp   

MiddleBondTorsion Coeffs  # class2

1         0.00000000      0.00000000      0.00000000      1.50100000 #  cp         c         cp         cp   
2         0.00000000      0.00000000      0.00000000      1.53000000 #  cp         c2        c3         hc   
3       -14.26100000     -0.53220000     -0.48640000      1.53000000 #  hc         c2        c3         hc   
4         0.00000000      0.00000000      0.00000000      1.50100000 #  c3         c2        cp         cp   
5         0.00000000      0.00000000      0.00000000      1.50100000 #  o_1        c         cp         cp   
6        -5.56790000      1.40830000      0.30100000      1.50100000 #  hc         c2        cp         cp   

BondBond13 Coeffs  # class2

1         0.00000000      1.50100000      1.41700000 #  cp         c         cp         cp   
2         0.00000000      1.50100000      1.10100000 #  cp         c2        c3         hc   
3         0.00000000      1.10100000      1.10100000 #  hc         c2        c3         hc   
4         0.00000000      1.53000000      1.41700000 #  c3         c2        cp         cp   
5         0.00000000      1.38000000      1.41700000 #  o_1        c         cp         cp   
6        -3.48260000      1.10100000      1.41700000 #  hc         c2        cp         cp   

AngleTorsion Coeffs  # class2

1         0.00000000      0.00000000      0.00000000      0.00000000      0.00000000      0.00000000    111.00000000    120.05000000 #  cp         c         cp         cp   
2         0.00000000      0.00000000      0.00000000      0.00000000      0.00000000      0.00000000    108.40000000    110.77000000 #  cp         c2        c3         hc   
3        -0.80850000      0.55690000     -0.24660000     -0.80850000      0.55690000     -0.24660000    110.77000000    110.77000000 #  hc         c2        c3         hc   
4         0.00000000      0.00000000      0.00000000      0.00000000      0.00000000      0.00000000    108.40000000    120.05000000 #  c3         c2        cp         cp   
5         0.00000000      0.00000000      0.00000000      0.00000000      0.00000000      0.00000000    109.50000000    120.05000000 #  o_1        c         cp         cp   
6         4.62660000      0.16320000      0.04610000      0.22510000      0.65480000      0.12370000    111.00000000    120.05000000 #  hc         c2        cp         cp   

AngleAngle Coeffs  # class2

1         0.00000000      0.00000000      0.00000000    120.05000000    118.90000000    120.05000000 #  c          cp        cp        cp      nb==3   
2         0.00000000      0.00000000      0.00000000    120.05000000    118.90000000    120.05000000 #  c2         cp        cp        cp      nb==3   
3         0.27380000     -0.48250000      0.27380000    110.77000000    110.77000000    107.66000000 #  c2         c3        hc        hc      nb!=3   
4         2.04030000     -1.82020000      1.08270000    108.40000000    110.77000000    111.00000000 #  c3         c2        cp        hc      nb!=3   
5         0.27380000     -0.48250000      0.27380000    110.77000000    110.77000000    107.66000000 #  c3         c2        hc        hc      nb!=3   
6         0.00000000      0.00000000      0.00000000    111.00000000    111.00000000    111.00000000 #  cp         c         cp        cp      nb!=3   
7         0.00000000      0.00000000      0.00000000    111.00000000    109.50000000    109.50000000 #  cp         c         cp       o_1      nb!=3   
8         2.37940000      3.01180000      2.37940000    111.00000000    111.00000000    107.66000000 #  cp         c2        hc        hc      nb!=3   
9        -0.31570000     -0.31570000     -0.31570000    107.66000000    107.66000000    107.66000000 #  hc         c3        hc        hc      nb!=3   

Atoms # full

  1     1   4    0.000000   -3.925876190    -1.817871429    -0.028685714      0    0    0 #  cp/C
  2     1   4    0.000000   -5.002576190    -0.917971429    -0.057185714      0    0    0 #  cp/C
  3     1   1    0.000000   -4.744576190     0.473628571    -0.070185714      0    0    0 #  c/C
  4     1   4    0.000000   -3.408776190     0.930828571    -0.054185714      0    0    0 #  cp/C
  5     1   4    0.000000   -2.351676190     0.013628571    -0.025785714      0    0    0 #  cp/C
  6     1   4    0.000000   -6.330276190    -1.373071429    -0.073085714      0    0    0 #  cp/C
  7     1   4    0.000000   -7.145676190     0.898628571    -0.114285714      0    0    0 #  cp/C
  8     1   4    0.000000   -5.828276190     1.378928571    -0.098985714      0    0    0 #  cp/C
  9     1   4    0.000000   -5.579576190     2.871228571    -0.113385714      0    0    0 #  cp/C
  10    1   4    0.000000   -3.122476190     2.370928571    -0.067285714      0    0    0 #  cp/C
  11    1   6    0.000000   -4.507276190     2.915828571    -0.740385714      0    0    0 #  o_1/O
  12    2   4    0.000000    5.043923810     1.174228571    -0.374985714      0    0    0 #  cp/C
  13    2   4    0.000000    4.195523810     0.104028571    -0.091185714      0    0    0 #  cp/C
  14    2   4    0.000000    2.812523810     0.278528571    -0.139785714      0    0    0 #  cp/C
  15    2   2   -0.106000    4.769323810    -1.231771429     0.265514286      0    0    0 #  c2/C
  16    2   3   -0.159000    6.290123810    -1.153271429     0.246914286      0    0    0 #  c3/C
  17    2   5    0.053000    4.425823810    -1.522671429     1.283414286      0    0    0 #  hc/H
  18    2   5    0.053000    4.428123810    -1.991171429    -0.473185714      0    0    0 #  hc/H
  19    2   5    0.053000    6.716723810    -2.146371429     0.512114286      0    0    0 #  hc/H
  20    2   5    0.053000    6.633623810    -0.862371429    -0.770985714      0    0    0 #  hc/H
  21    2   5    0.053000    6.631323810    -0.393871429     0.985614286      0    0    0 #  hc/H

Bonds

  1   7     1     2  
  2   1     3     2  
  3   7     2     6  
  4   1     3     4  
  5   1     3     8  
  6   2     3    11  
  7   7     4     5  
  8   7     4    10  
  9   7     7     8  
 10   7     8     9  
 11   7    12    13  
 12   7    13    14  
 13   4    15    13  
 14   3    15    16  
 15   5    15    17  
 16   5    15    18  
 17   6    16    19  
 18   6    16    20  
 19   6    16    21  

Angles

  1   1     3     2     6  
  2   9     1     2     6  
  3   1     3     2     1  
  4   7    11     3     4  
  5   6     4     3     8  
  6   7    11     3     2  
  7   6     2     3     8  
  8   7    11     3     8  
  9   6     2     3     4  
 10   1     3     4    10  
 11   9     5     4    10  
 12   1     3     4     5  
 13   1     3     8     7  
 14   9     7     8     9  
 15   1     3     8     9  
 16   3    15    13    12  
 17   3    15    13    14  
 18   9    12    13    14  
 19   5    16    15    17  
 20   4    16    15    13  
 21   10   17    15    18  
 22   8    13    15    18  
 23   5    16    15    18  
 24   8    13    15    17  
 25   11   19    16    21  
 26   2    15    16    21  
 27   11   19    16    20  
 28   2    15    16    20  
 29   11   20    16    21  
 30   2    15    16    19  

Dihedrals

  1   1     4     3     2     1  
  2   5    11     3     2     6  
  3   1     8     3     2     6  
  4   5    11     3     2     1  
  5   1     8     3     2     1  
  6   1     2     3     8     9  
  7   1     4     3     8     7  
  8   1     2     3     4     5  
  9   1     8     3     4    10  
 10   1     4     3     2     6  
 11   1     4     3     8     9  
 12   1     2     3     4    10  
 13   1     2     3     8     7  
 14   5    11     3     4    10  
 15   1     8     3     4     5  
 16   5    11     3     4     5  
 17   5    11     3     8     9  
 18   5    11     3     8     7  
 19   6    17    15    13    14  
 20   6    17    15    13    12  
 21   4    16    15    13    14  
 22   4    16    15    13    12  
 23   6    18    15    13    14  
 24   6    18    15    13    12  
 25   2    13    15    16    20  
 26   3    17    15    16    19  
 27   3    18    15    16    21  
 28   2    13    15    16    19  
 29   3    17    15    16    21  
 30   3    18    15    16    20  
 31   2    13    15    16    21  
 32   3    17    15    16    20  
 33   3    18    15    16    19  

Impropers

  1   1     3     2     1     6  
  2   1     3     4     5    10  
  3   1     3     8     7     9  
  4   2    15    13    12    14  
  5   7     2     3     8    11  
  6   7     4     3     8    11  
  7   6     2     3     4     8  
  8   7     2     3     4    11  
  9   4    16    15    13    18  
 10   8    13    15    17    18  
 11   4    16    15    13    17  
 12   5    16    15    17    18  
 13   3    15    16    20    21  
 14   9    19    16    20    21  
 15   3    15    16    19    21  
 16   3    15    16    19    20  
