HEADER,  r1_post.mol  read w/ mol2lmp > atom_typing v1.10 / 10 May 2024 w/PCFF-IFF atom-types > all2lmp: v1.21 / 13 November 2024  Class: 2

21 atoms
19 bonds
31 angles
39 dihedrals
16 impropers

6 atom types
7 bond types
12 angle types
11 dihedral types
9 improper types

-7.645676190 7.216723810 xlo xhi
-2.646371429 3.415828571 ylo yhi
-1.270985714 1.783414286 zlo zhi

Masses

1   12.01115000  #  c    
2   12.01115000  #  c2   
3   12.01115000  #  cp   
4    1.00797000  #  h    
5    1.00797000  #  hc   
6   15.99940000  #  oc   

Pair Coeffs  # lj/class2/coul/long

1         0.05400000      4.01000000 #  c    
2         0.05400000      4.01000000 #  c2   
3         0.06400000      4.01000000 #  cp   
4         0.02000000      2.30000000 #  h    
5         0.02000000      2.30000000 #  hc   
6         0.24000000      3.53500000 #  oc   

Bond Coeffs  # class2

1         1.50100000    321.90210000   -521.82080000    572.16280000 #  c           cp   
2         1.42000000    400.39540000   -835.19510000   1313.01420000 #  c           oc   
3         1.53000000    299.67000000   -501.77000000    679.81000000 #  c2          c2   
4         1.50100000    321.90210000   -521.82080000    572.16280000 #  c2          cp   
5         1.10100000    345.00000000   -691.89000000    844.60000000 #  c2          hc   
6         1.42000000    400.39540000   -835.19510000   1313.01420000 #  c2          oc   
7         1.41700000    470.83610000   -627.61790000   1327.63450000 #  cp          cp   

Angle Coeffs  # class2

1       120.05000000     44.71480000    -22.73520000      0.00000000 #  c          cp         cp   
2       104.50000000     35.74540000    -10.00670000     -6.27290000 #  c          oc         c2   
3       108.40000000     43.95940000     -8.39240000     -9.33790000 #  c2         c2         cp   
4       110.77000000     41.45300000    -10.60400000      5.12900000 #  c2         c2         hc   
5       111.27000000     54.53810000     -8.36420000    -13.08380000 #  c2         c2         oc   
6       120.05000000     44.71480000    -22.73520000      0.00000000 #  c2         cp         cp   
7       111.00000000     44.32340000     -9.44540000      0.00000000 #  cp         c          cp   
8       110.50000000     46.00000000      0.00000000      0.00000000 #  cp         c          oc   
9       111.00000000     44.32340000     -9.44540000      0.00000000 #  cp         c2         hc   
10      118.90000000     61.02260000    -34.99310000      0.00000000 #  cp         cp         cp   
11      107.66000000     39.64100000    -12.92100000     -2.43180000 #  hc         c2         hc   
12      108.72800000     58.54460000    -10.80880000    -12.40060000 #  hc         c2         oc   

Dihedral Coeffs  # class2

1        -0.28020000      0.00000000     -0.06780000      0.00000000     -0.01220000      0.00000000 #  cp         c         cp         cp   
2        -0.02280000      0.00000000      0.02800000      0.00000000     -0.18630000      0.00000000 #  cp         c2        c2         hc   
3        -0.14320000      0.00000000      0.06170000      0.00000000     -0.10830000      0.00000000 #  hc         c2        c2         hc   
4         0.00000000      0.00000000      0.00000000      0.00000000      0.15800000      0.00000000 #  cp         c2        c2         oc   
5        -0.14350000      0.00000000      0.25300000      0.00000000     -0.09050000      0.00000000 #  hc         c2        c2         oc   
6        -0.28020000      0.00000000     -0.06780000      0.00000000     -0.01220000      0.00000000 #  c2         c2        cp         cp   
7         0.00000000      0.00000000      0.00000000      0.00000000      0.00000000      0.00000000 #  oc         c         cp         cp   
8        -0.28010000      0.00000000     -0.06780000      0.00000000     -0.01220000      0.00000000 #  hc         c2        cp         cp   
9         0.00000000      0.00000000      0.00000000      0.00000000      0.13000000      0.00000000 #  cp         c         oc         c2   
10       -0.52030000      0.00000000     -0.30280000      0.00000000     -0.34500000      0.00000000 #  c2         c2        oc          c   
11        0.53020000      0.00000000      0.00000000      0.00000000     -0.39660000      0.00000000 #  hc         c2        oc          c   

Improper Coeffs  # class2

1         7.81530000      0.00000000 #  c          cp        cp        cp      nb==3   
2         7.81530000      0.00000000 #  c2         cp        cp        cp      nb==3   
3         0.00000000      0.00000000 #  c2         c2        cp        hc      nb!=3   
4         0.00000000      0.00000000 #  c2         c2        hc        hc      nb!=3   
5         0.00000000      0.00000000 #  c2         c2        hc        oc      nb!=3   
6         0.00000000      0.00000000 #  cp         c         cp        cp      nb!=3   
7         0.00000000      0.00000000 #  cp         c         cp        oc      nb!=3   
8         0.00000000      0.00000000 #  cp         c2        hc        hc      nb!=3   
9         0.00000000      0.00000000 #  hc         c2        hc        oc      nb!=3   

BondBond Coeffs  # class2

1        12.06760000      1.50100000      1.41700000 #  c          cp         cp   
2        -7.11310000      1.42000000      1.42000000 #  c          oc         c2   
3         0.00000000      1.53000000      1.50100000 #  c2         c2         cp   
4         3.38720000      1.53000000      1.10100000 #  c2         c2         hc   
5        11.43180000      1.53000000      1.42000000 #  c2         c2         oc   
6        12.06760000      1.50100000      1.41700000 #  c2         cp         cp   
7         0.00000000      1.50100000      1.50100000 #  cp         c          cp   
8         0.00000000      1.50100000      1.42000000 #  cp         c          oc   
9         2.91680000      1.50100000      1.10100000 #  cp         c2         hc   
10       68.28560000      1.41700000      1.41700000 #  cp         cp         cp   
11        5.33160000      1.10100000      1.10100000 #  hc         c2         hc   
12       23.19790000      1.10100000      1.42000000 #  hc         c2         oc   

BondAngle Coeffs  # class2

1        47.05790000     31.07710000      1.50100000      1.41700000 #  c          cp         cp   
2        -2.81120000     -2.81120000      1.42000000      1.42000000 #  c          oc         c2   
3         0.00000000      0.00000000      1.53000000      1.50100000 #  c2         c2         cp   
4        20.75400000     11.42100000      1.53000000      1.10100000 #  c2         c2         hc   
5         2.68680000     20.40330000      1.53000000      1.42000000 #  c2         c2         oc   
6        47.05790000     31.07710000      1.50100000      1.41700000 #  c2         cp         cp   
7         0.00000000      0.00000000      1.50100000      1.50100000 #  cp         c          cp   
8         0.00000000      0.00000000      1.50100000      1.42000000 #  cp         c          oc   
9        26.46080000     11.77170000      1.50100000      1.10100000 #  cp         c2         hc   
10       28.87080000     28.87080000      1.41700000      1.41700000 #  cp         cp         cp   
11       18.10300000     18.10300000      1.10100000      1.10100000 #  hc         c2         hc   
12        4.61890000     55.32700000      1.10100000      1.42000000 #  hc         c2         oc   

AngleAngleTorsion Coeffs  # class2

1         0.00000000    111.00000000    120.05000000 #  cp         c         cp         cp   
2         0.00000000    108.40000000    110.77000000 #  cp         c2        c2         hc   
3       -12.56400000    110.77000000    110.77000000 #  hc         c2        c2         hc   
4         0.00000000    108.40000000    111.27000000 #  cp         c2        c2         oc   
5       -20.20060000    110.77000000    111.27000000 #  hc         c2        c2         oc   
6         0.00000000    108.40000000    120.05000000 #  c2         c2        cp         cp   
7         0.00000000    110.50000000    120.05000000 #  oc         c         cp         cp   
8        -5.88880000    111.00000000    120.05000000 #  hc         c2        cp         cp   
9         0.00000000    110.50000000    104.50000000 #  cp         c         oc         c2   
10      -19.00590000    111.27000000    104.50000000 #  c2         c2        oc          c   
11      -16.44380000    108.72800000    104.50000000 #  hc         c2        oc          c   

EndBondTorsion Coeffs  # class2

1         0.00000000      0.00000000      0.00000000      0.00000000      0.00000000      0.00000000      1.50100000      1.41700000 #  cp         c         cp         cp   
2         0.00000000      0.00000000      0.00000000      0.00000000      0.00000000      0.00000000      1.50100000      1.10100000 #  cp         c2        c2         hc   
3         0.21300000      0.31200000      0.07770000      0.21300000      0.31200000      0.07770000      1.10100000      1.10100000 #  hc         c2        c2         hc   
4         0.00000000      0.00000000      0.00000000      0.00000000      0.00000000      0.00000000      1.50100000      1.42000000 #  cp         c2        c2         oc   
5         0.96810000      0.95510000      0.04360000      0.59030000      0.66690000      0.85840000      1.10100000      1.42000000 #  hc         c2        c2         oc   
6         0.00000000      0.00000000      0.00000000      0.00000000      0.00000000      0.00000000      1.53000000      1.41700000 #  c2         c2        cp         cp   
7         0.00000000      0.00000000      0.00000000      0.00000000      0.00000000      0.00000000      1.42000000      1.41700000 #  oc         c         cp         cp   
8         1.39970000      0.77560000      0.00000000     -0.58350000      1.12200000      0.39780000      1.10100000      1.41700000 #  hc         c2        cp         cp   
9         0.00000000      0.00000000      0.00000000      0.00000000      0.00000000      0.00000000      1.50100000      1.42000000 #  cp         c         oc         c2   
10       -0.24560000      1.05170000     -0.77950000      0.47410000      1.26350000      0.55760000      1.53000000      1.42000000 #  c2         c2        oc          c   
11       -0.60540000      1.33390000      0.96480000     -0.16200000      0.15640000     -1.14080000      1.10100000      1.42000000 #  hc         c2        oc          c   

MiddleBondTorsion Coeffs  # class2

1         0.00000000      0.00000000      0.00000000      1.50100000 #  cp         c         cp         cp   
2         0.00000000      0.00000000      0.00000000      1.53000000 #  cp         c2        c2         hc   
3       -14.26100000     -0.53220000     -0.48640000      1.53000000 #  hc         c2        c2         hc   
4         0.00000000      0.00000000      0.00000000      1.53000000 #  cp         c2        c2         oc   
5       -16.79750000     -1.22960000     -0.27500000      1.53000000 #  hc         c2        c2         oc   
6         0.00000000      0.00000000      0.00000000      1.50100000 #  c2         c2        cp         cp   
7         0.00000000      0.00000000      0.00000000      1.50100000 #  oc         c         cp         cp   
8        -5.56790000      1.40830000      0.30100000      1.50100000 #  hc         c2        cp         cp   
9         0.00000000      0.00000000      0.00000000      1.42000000 #  cp         c         oc         c2   
10       -5.92880000     -2.70070000     -0.31750000      1.42000000 #  c2         c2        oc          c   
11       -6.80070000     -4.65460000     -1.41010000      1.42000000 #  hc         c2        oc          c   

BondBond13 Coeffs  # class2

1         0.00000000      1.50100000      1.41700000 #  cp         c         cp         cp   
2         0.00000000      1.50100000      1.10100000 #  cp         c2        c2         hc   
3         0.00000000      1.10100000      1.10100000 #  hc         c2        c2         hc   
4         0.00000000      1.50100000      1.42000000 #  cp         c2        c2         oc   
5         0.00000000      1.10100000      1.42000000 #  hc         c2        c2         oc   
6         0.00000000      1.53000000      1.41700000 #  c2         c2        cp         cp   
7         0.00000000      1.42000000      1.41700000 #  oc         c         cp         cp   
8        -3.48260000      1.10100000      1.41700000 #  hc         c2        cp         cp   
9         0.00000000      1.50100000      1.42000000 #  cp         c         oc         c2   
10        0.00000000      1.53000000      1.42000000 #  c2         c2        oc          c   
11        0.00000000      1.10100000      1.42000000 #  hc         c2        oc          c   

AngleTorsion Coeffs  # class2

1         0.00000000      0.00000000      0.00000000      0.00000000      0.00000000      0.00000000    111.00000000    120.05000000 #  cp         c         cp         cp   
2         0.00000000      0.00000000      0.00000000      0.00000000      0.00000000      0.00000000    108.40000000    110.77000000 #  cp         c2        c2         hc   
3        -0.80850000      0.55690000     -0.24660000     -0.80850000      0.55690000     -0.24660000    110.77000000    110.77000000 #  hc         c2        c2         hc   
4         0.00000000      0.00000000      0.00000000      0.00000000      0.00000000      0.00000000    108.40000000    111.27000000 #  cp         c2        c2         oc   
5         2.36680000      2.49200000     -1.01220000     -0.18920000      0.49180000      0.72730000    110.77000000    111.27000000 #  hc         c2        c2         oc   
6         0.00000000      0.00000000      0.00000000      0.00000000      0.00000000      0.00000000    108.40000000    120.05000000 #  c2         c2        cp         cp   
7         0.00000000      0.00000000      0.00000000      0.00000000      0.00000000      0.00000000    110.50000000    120.05000000 #  oc         c         cp         cp   
8         4.62660000      0.16320000      0.04610000      0.22510000      0.65480000      0.12370000    111.00000000    120.05000000 #  hc         c2        cp         cp   
9         0.00000000      0.00000000      0.00000000      0.00000000      0.00000000      0.00000000    110.50000000    104.50000000 #  cp         c         oc         c2   
10       -2.74660000      1.48770000     -0.89550000      0.56760000      0.94500000      0.07030000    111.27000000    104.50000000 #  c2         c2        oc          c   
11       -1.82340000      1.63930000      0.51440000     -0.77770000      0.43400000     -0.66530000    108.72800000    104.50000000 #  hc         c2        oc          c   

AngleAngle Coeffs  # class2

1         0.00000000      0.00000000      0.00000000    120.05000000    118.90000000    120.05000000 #  c          cp        cp        cp      nb==3   
2         0.00000000      0.00000000      0.00000000    120.05000000    118.90000000    120.05000000 #  c2         cp        cp        cp      nb==3   
3         2.04030000     -1.82020000      1.08270000    108.40000000    110.77000000    111.00000000 #  c2         c2        cp        hc      nb!=3   
4         0.27380000     -0.48250000      0.27380000    110.77000000    110.77000000    107.66000000 #  c2         c2        hc        hc      nb!=3   
5         3.91770000      2.59260000      0.16890000    110.77000000    111.27000000    108.72800000 #  c2         c2        hc        oc      nb!=3   
6         0.00000000      0.00000000      0.00000000    111.00000000    111.00000000    111.00000000 #  cp         c         cp        cp      nb!=3   
7         0.00000000      0.00000000      0.00000000    111.00000000    110.50000000    110.50000000 #  cp         c         cp        oc      nb!=3   
8         2.37940000      3.01180000      2.37940000    111.00000000    111.00000000    107.66000000 #  cp         c2        hc        hc      nb!=3   
9         2.42590000      2.42590000      2.12830000    107.66000000    108.72800000    108.72800000 #  hc         c2        hc        oc      nb!=3   

Atoms # full

  1     1   3    0.000000   -3.925876190    -1.817871429    -0.028685714      0    0    0 #  cp/C
  2     1   3    0.000000   -5.002576190    -0.917971429    -0.057185714      0    0    0 #  cp/C
  3     1   1    0.133000   -4.744576190     0.473628571    -0.070185714      0    0    0 #  c/C
  4     1   3    0.000000   -3.408776190     0.930828571    -0.054185714      0    0    0 #  cp/C
  5     1   3    0.000000   -2.351676190     0.013628571    -0.025785714      0    0    0 #  cp/C
  6     1   3    0.000000   -6.330276190    -1.373071429    -0.073085714      0    0    0 #  cp/C
  7     1   3    0.000000   -7.145676190     0.898628571    -0.114285714      0    0    0 #  cp/C
  8     1   3    0.000000   -5.828276190     1.378928571    -0.098985714      0    0    0 #  cp/C
  9     1   3    0.000000   -5.579576190     2.871228571    -0.113385714      0    0    0 #  cp/C
  10    1   3    0.000000   -3.122476190     2.370928571    -0.067285714      0    0    0 #  cp/C
  11    1   3    0.000000    5.043923810     1.174228571    -0.374985714      0    0    0 #  cp/C
  12    1   3    0.000000    4.195523810     0.104028571    -0.091185714      0    0    0 #  cp/C
  13    1   3    0.000000    2.812523810     0.278528571    -0.139785714      0    0    0 #  cp/C
  14    1   2   -0.106000    4.769323810    -1.231771429     0.265514286      0    0    0 #  c2/C
  15    1   2    0.027000    6.290123810    -1.153271429     0.246914286      0    0    0 #  c2/C
  16    1   5    0.053000    4.425823810    -1.522671429     1.283414286      0    0    0 #  hc/H
  17    1   5    0.053000    4.428123810    -1.991171429    -0.473185714      0    0    0 #  hc/H
  18    1   5    0.053000    6.716723810    -2.146371429     0.512114286      0    0    0 #  hc/H
  19    1   5    0.053000    6.633623810    -0.862371429    -0.770985714      0    0    0 #  hc/H
  20    1   6   -0.266000   -4.507276190     2.915828571    -0.740385714      0    0    0 #  oc/O
  21    2   4    0.000000    6.631323810    -0.393871429     0.985614286      0    0    0 #  h/H

Bonds

  1   7     1     2  
  2   1     3     2  
  3   7     2     6  
  4   1     3     4  
  5   1     3     8  
  6   2     3    20  
  7   7     4     5  
  8   7     4    10  
  9   7     7     8  
 10   7     8     9  
 11   7    11    12  
 12   7    12    13  
 13   4    14    12  
 14   3    14    15  
 15   5    14    16  
 16   5    14    17  
 17   5    15    18  
 18   5    15    19  
 19   6    15    20  

Angles

  1   1     3     2     6  
  2   10    1     2     6  
  3   1     3     2     1  
  4   7     4     3     8  
  5   8     4     3    20  
  6   7     2     3     8  
  7   8     2     3    20  
  8   8     8     3    20  
  9   7     2     3     4  
 10   1     3     4    10  
 11   10    5     4    10  
 12   1     3     4     5  
 13   1     3     8     7  
 14   10    7     8     9  
 15   1     3     8     9  
 16   10   11    12    13  
 17   6    14    12    13  
 18   6    14    12    11  
 19   9    12    14    16  
 20   3    15    14    12  
 21   4    15    14    17  
 22   11   16    14    17  
 23   9    12    14    17  
 24   4    15    14    16  
 25   12   18    15    20  
 26   11   18    15    19  
 27   5    14    15    20  
 28   4    14    15    19  
 29   12   19    15    20  
 30   4    14    15    18  
 31   2     3    20    15  

Dihedrals

  1   1     4     3     2     1  
  2   1     8     3     2     6  
  3   7    20     3     2     6  
  4   1     8     3     2     1  
  5   7    20     3     2     1  
  6   1     2     3     8     9  
  7   1     4     3     8     7  
  8   9     4     3    20    15  
  9   1     2     3     4     5  
 10   1     8     3     4    10  
 11   1     4     3     2     6  
 12   9     8     3    20    15  
 13   1     4     3     8     9  
 14   9     2     3    20    15  
 15   1     2     3     4    10  
 16   1     2     3     8     7  
 17   7    20     3     4    10  
 18   1     8     3     4     5  
 19   7    20     3     4     5  
 20   7    20     3     8     9  
 21   7    20     3     8     7  
 22   6    15    14    12    13  
 23   8    17    14    12    11  
 24   8    17    14    12    13  
 25   8    16    14    12    11  
 26   8    16    14    12    13  
 27   6    15    14    12    11  
 28   4    12    14    15    20  
 29   3    16    14    15    19  
 30   3    17    14    15    18  
 31   2    12    14    15    19  
 32   3    16    14    15    18  
 33   5    17    14    15    20  
 34   2    12    14    15    18  
 35   5    16    14    15    20  
 36   3    17    14    15    19  
 37   11   19    15    20     3  
 38   11   18    15    20     3  
 39   10   14    15    20     3  

Impropers

  1   1     3     2     1     6  
  2   1     3     4     5    10  
  3   1     3     8     7     9  
  4   2    14    12    11    13  
  5   7     2     3     4    20  
  6   7     4     3     8    20  
  7   7     2     3     8    20  
  8   6     2     3     4     8  
  9   3    15    14    12    17  
 10   3    15    14    12    16  
 11   4    15    14    16    17  
 12   8    12    14    16    17  
 13   5    14    15    18    20  
 14   5    14    15    19    20  
 15   9    18    15    19    20  
 16   4    14    15    18    19  
