HEADER,  r2_post.mol  read w/ mol2lmp > atom_typing v1.10 / 10 May 2024 w/PCFF-IFF atom-types > all2lmp: v1.21 / 13 November 2024  Class: 2

25 atoms
23 bonds
37 angles
50 dihedrals
20 impropers

7 atom types
11 bond types
17 angle types
23 dihedral types
13 improper types

-7.596956000 6.842644000 xlo xhi
-2.430728000 3.681872000 ylo yhi
-1.353804000 1.700596000 zlo zhi

Masses

1   12.01115000  #  c    
2   12.01115000  #  c1   
3   12.01115000  #  c2   
4   12.01115000  #  cp   
5    1.00797000  #  h    
6    1.00797000  #  hc   
7   15.99940000  #  oc   

Pair Coeffs  # lj/class2/coul/long

1         0.05400000      4.01000000 #  c    
2         0.05400000      4.01000000 #  c1   
3         0.05400000      4.01000000 #  c2   
4         0.06400000      4.01000000 #  cp   
5         0.02000000      2.30000000 #  h    
6         0.02000000      2.30000000 #  hc   
7         0.24000000      3.53500000 #  oc   

Bond Coeffs  # class2

1         1.42000000    400.39540000   -835.19510000   1313.01420000 #  c           oc   
2         1.53000000    299.67000000   -501.77000000    679.81000000 #  c1          c2   
3         1.50100000    321.90210000   -521.82080000    572.16280000 #  c1          cp   
4         1.10100000    345.00000000   -691.89000000    844.60000000 #  c1          hc   
5         1.53000000    299.67000000   -501.77000000    679.81000000 #  c2          c2   
6         1.50100000    321.90210000   -521.82080000    572.16280000 #  c2          cp   
7         1.10100000    345.00000000   -691.89000000    844.60000000 #  c2          hc   
8         1.42000000    400.39540000   -835.19510000   1313.01420000 #  c2          oc   
9         1.41700000    470.83610000   -627.61790000   1327.63450000 #  cp          cp   
10        1.09820000    372.82510000   -803.45260000    894.31730000 #  cp          hc   
11        0.74140000    414.00000000      0.00000000      0.00000000 #  h            h   

Angle Coeffs  # class2

1       104.50000000     35.74540000    -10.00670000     -6.27290000 #  c          oc         c2   
2       112.67000000     39.51600000     -7.44300000     -9.55830000 #  c1         c2         c2   
3       110.77000000     41.45300000    -10.60400000      5.12900000 #  c1         c2         hc   
4       111.27000000     54.53810000     -8.36420000    -13.08380000 #  c1         c2         oc   
5       120.05000000     44.71480000    -22.73520000      0.00000000 #  c1         cp         cp   
6       112.67000000     39.51600000     -7.44300000     -9.55830000 #  c2         c1         c2   
7       108.40000000     43.95940000     -8.39240000     -9.33790000 #  c2         c1         cp   
8       110.77000000     41.45300000    -10.60400000      5.12900000 #  c2         c1         hc   
9       108.40000000     43.95940000     -8.39240000     -9.33790000 #  c2         c2         cp   
10      110.77000000     41.45300000    -10.60400000      5.12900000 #  c2         c2         hc   
11      120.05000000     44.71480000    -22.73520000      0.00000000 #  c2         cp         cp   
12      111.00000000     44.32340000     -9.44540000      0.00000000 #  cp         c1         hc   
13      111.00000000     44.32340000     -9.44540000      0.00000000 #  cp         c2         hc   
14      118.90000000     61.02260000    -34.99310000      0.00000000 #  cp         cp         cp   
15      117.94000000     35.15580000    -12.46820000      0.00000000 #  cp         cp         hc   
16      107.66000000     39.64100000    -12.92100000     -2.43180000 #  hc         c2         hc   
17      108.72800000     58.54460000    -10.80880000    -12.40060000 #  hc         c2         oc   

Dihedral Coeffs  # class2

1         0.00000000      0.00000000      0.05140000      0.00000000     -0.14300000      0.00000000 #  c2         c1        c2         c2   
2        -0.14320000      0.00000000      0.06170000      0.00000000     -0.10830000      0.00000000 #  hc         c1        c2         hc   
3         0.00000000      0.00000000      0.03160000      0.00000000     -0.16810000      0.00000000 #  c2         c1        c2         hc   
4        -0.02280000      0.00000000      0.02800000      0.00000000     -0.18630000      0.00000000 #  cp         c1        c2         hc   
5        -0.14350000      0.00000000      0.25300000      0.00000000     -0.09050000      0.00000000 #  hc         c1        c2         oc   
6         0.71370000      0.00000000      0.26600000      0.00000000     -0.25450000      0.00000000 #  c2         c1        c2         oc   
7         0.00000000      0.00000000      0.00000000      0.00000000      0.15800000      0.00000000 #  cp         c1        c2         oc   
8        -0.28020000      0.00000000     -0.06780000      0.00000000     -0.01220000      0.00000000 #  c2         c1        cp         cp   
9         0.00000000      0.00000000      0.00000000      0.00000000      0.15800000      0.00000000 #  c2         c2        c1         cp   
10        0.00000000      0.00000000      0.03160000      0.00000000     -0.16810000      0.00000000 #  c2         c2        c1         hc   
11        0.00000000      0.00000000      0.00000000      0.00000000      0.15800000      0.00000000 #  c1         c2        c2         cp   
12       -0.02280000      0.00000000      0.02800000      0.00000000     -0.18630000      0.00000000 #  cp         c2        c2         hc   
13       -0.14320000      0.00000000      0.06170000      0.00000000     -0.10830000      0.00000000 #  hc         c2        c2         hc   
14        0.00000000      0.00000000      0.03160000      0.00000000     -0.16810000      0.00000000 #  c1         c2        c2         hc   
15       -0.28020000      0.00000000     -0.06780000      0.00000000     -0.01220000      0.00000000 #  c2         c2        cp         cp   
16       -0.28010000      0.00000000     -0.06780000      0.00000000     -0.01220000      0.00000000 #  hc         c1        cp         cp   
17       -0.28010000      0.00000000     -0.06780000      0.00000000     -0.01220000      0.00000000 #  hc         c2        cp         cp   
18        0.00000000      0.00000000      4.40720000      0.00000000      0.00000000      0.00000000 #  c1         cp        cp         cp   
19        8.36670000      0.00000000      1.19320000      0.00000000      0.00000000      0.00000000 #  cp         cp        cp         cp   
20        0.00000000      0.00000000      3.96610000      0.00000000      0.00000000      0.00000000 #  cp         cp        cp         hc   
21        0.00000000      0.00000000      1.55900000      0.00000000      0.00000000      0.00000000 #  c1         cp        cp         hc   
22       -0.52030000      0.00000000     -0.30280000      0.00000000     -0.34500000      0.00000000 #  c1         c2        oc          c   
23        0.53020000      0.00000000      0.00000000      0.00000000     -0.39660000      0.00000000 #  hc         c2        oc          c   

Improper Coeffs  # class2

1         7.81530000      0.00000000 #  c1         cp        cp        cp      nb==3   
2         7.81530000      0.00000000 #  c2         cp        cp        cp      nb==3   
3         4.89120000      0.00000000 #  cp         cp        cp        hc      nb==3   
4         0.00000000      0.00000000 #  c1         c2        c2        hc      nb!=3   
5         0.00000000      0.00000000 #  c1         c2        hc        hc      nb!=3   
6         0.00000000      0.00000000 #  c1         c2        hc        oc      nb!=3   
7         0.00000000      0.00000000 #  c2         c1        c2        cp      nb!=3   
8         0.00000000      0.00000000 #  c2         c1        c2        hc      nb!=3   
9         0.00000000      0.00000000 #  c2         c1        cp        hc      nb!=3   
10        0.00000000      0.00000000 #  c2         c2        cp        hc      nb!=3   
11        0.00000000      0.00000000 #  c2         c2        hc        hc      nb!=3   
12        0.00000000      0.00000000 #  cp         c2        hc        hc      nb!=3   
13        0.00000000      0.00000000 #  hc         c2        hc        oc      nb!=3   

BondBond Coeffs  # class2

1        -7.11310000      1.42000000      1.42000000 #  c          oc         c2   
2         0.00000000      1.53000000      1.53000000 #  c1         c2         c2   
3         3.38720000      1.53000000      1.10100000 #  c1         c2         hc   
4        11.43180000      1.53000000      1.42000000 #  c1         c2         oc   
5        12.06760000      1.50100000      1.41700000 #  c1         cp         cp   
6         0.00000000      1.53000000      1.53000000 #  c2         c1         c2   
7         0.00000000      1.53000000      1.50100000 #  c2         c1         cp   
8         3.38720000      1.53000000      1.10100000 #  c2         c1         hc   
9         0.00000000      1.53000000      1.50100000 #  c2         c2         cp   
10        3.38720000      1.53000000      1.10100000 #  c2         c2         hc   
11       12.06760000      1.50100000      1.41700000 #  c2         cp         cp   
12        2.91680000      1.50100000      1.10100000 #  cp         c1         hc   
13        2.91680000      1.50100000      1.10100000 #  cp         c2         hc   
14       68.28560000      1.41700000      1.41700000 #  cp         cp         cp   
15        1.07950000      1.41700000      1.09820000 #  cp         cp         hc   
16        5.33160000      1.10100000      1.10100000 #  hc         c2         hc   
17       23.19790000      1.10100000      1.42000000 #  hc         c2         oc   

BondAngle Coeffs  # class2

1        -2.81120000     -2.81120000      1.42000000      1.42000000 #  c          oc         c2   
2         8.01600000      8.01600000      1.53000000      1.53000000 #  c1         c2         c2   
3        20.75400000     11.42100000      1.53000000      1.10100000 #  c1         c2         hc   
4         2.68680000     20.40330000      1.53000000      1.42000000 #  c1         c2         oc   
5        47.05790000     31.07710000      1.50100000      1.41700000 #  c1         cp         cp   
6         8.01600000      8.01600000      1.53000000      1.53000000 #  c2         c1         c2   
7         0.00000000      0.00000000      1.53000000      1.50100000 #  c2         c1         cp   
8        20.75400000     11.42100000      1.53000000      1.10100000 #  c2         c1         hc   
9         0.00000000      0.00000000      1.53000000      1.50100000 #  c2         c2         cp   
10       20.75400000     11.42100000      1.53000000      1.10100000 #  c2         c2         hc   
11       47.05790000     31.07710000      1.50100000      1.41700000 #  c2         cp         cp   
12       26.46080000     11.77170000      1.50100000      1.10100000 #  cp         c1         hc   
13       26.46080000     11.77170000      1.50100000      1.10100000 #  cp         c2         hc   
14       28.87080000     28.87080000      1.41700000      1.41700000 #  cp         cp         cp   
15       20.00330000     24.21830000      1.41700000      1.09820000 #  cp         cp         hc   
16       18.10300000     18.10300000      1.10100000      1.10100000 #  hc         c2         hc   
17        4.61890000     55.32700000      1.10100000      1.42000000 #  hc         c2         oc   

AngleAngleTorsion Coeffs  # class2

1       -22.04500000    112.67000000    112.67000000 #  c2         c1        c2         c2   
2       -12.56400000    110.77000000    110.77000000 #  hc         c1        c2         hc   
3       -16.16400000    112.67000000    110.77000000 #  c2         c1        c2         hc   
4         0.00000000    108.40000000    110.77000000 #  cp         c1        c2         hc   
5       -20.20060000    110.77000000    111.27000000 #  hc         c1        c2         oc   
6       -29.04200000    112.67000000    111.27000000 #  c2         c1        c2         oc   
7         0.00000000    108.40000000    111.27000000 #  cp         c1        c2         oc   
8         0.00000000    108.40000000    120.05000000 #  c2         c1        cp         cp   
9         0.00000000    112.67000000    108.40000000 #  c2         c2        c1         cp   
10      -16.16400000    112.67000000    110.77000000 #  c2         c2        c1         hc   
11        0.00000000    112.67000000    108.40000000 #  c1         c2        c2         cp   
12        0.00000000    108.40000000    110.77000000 #  cp         c2        c2         hc   
13      -12.56400000    110.77000000    110.77000000 #  hc         c2        c2         hc   
14      -16.16400000    112.67000000    110.77000000 #  c1         c2        c2         hc   
15        0.00000000    108.40000000    120.05000000 #  c2         c2        cp         cp   
16       -5.88880000    111.00000000    120.05000000 #  hc         c1        cp         cp   
17       -5.88880000    111.00000000    120.05000000 #  hc         c2        cp         cp   
18      -14.40970000    120.05000000    118.90000000 #  c1         cp        cp         cp   
19        0.00000000    118.90000000    118.90000000 #  cp         cp        cp         cp   
20       -4.81410000    118.90000000    117.94000000 #  cp         cp        cp         hc   
21        4.44440000    120.05000000    117.94000000 #  c1         cp        cp         hc   
22      -19.00590000    111.27000000    104.50000000 #  c1         c2        oc          c   
23      -16.44380000    108.72800000    104.50000000 #  hc         c2        oc          c   

EndBondTorsion Coeffs  # class2

1        -0.07320000      0.00000000      0.00000000     -0.07320000      0.00000000      0.00000000      1.53000000      1.53000000 #  c2         c1        c2         c2   
2         0.21300000      0.31200000      0.07770000      0.21300000      0.31200000      0.07770000      1.10100000      1.10100000 #  hc         c1        c2         hc   
3         0.24860000      0.24220000     -0.09250000      0.08140000      0.05910000      0.22190000      1.53000000      1.10100000 #  c2         c1        c2         hc   
4         0.00000000      0.00000000      0.00000000      0.00000000      0.00000000      0.00000000      1.50100000      1.10100000 #  cp         c1        c2         hc   
5         0.96810000      0.95510000      0.04360000      0.59030000      0.66690000      0.85840000      1.10100000      1.42000000 #  hc         c1        c2         oc   
6        -0.31900000      0.44110000     -0.71740000      1.15380000      0.84090000     -0.91380000      1.53000000      1.42000000 #  c2         c1        c2         oc   
7         0.00000000      0.00000000      0.00000000      0.00000000      0.00000000      0.00000000      1.50100000      1.42000000 #  cp         c1        c2         oc   
8         0.00000000      0.00000000      0.00000000      0.00000000      0.00000000      0.00000000      1.53000000      1.41700000 #  c2         c1        cp         cp   
9         0.00000000      0.00000000      0.00000000      0.00000000      0.00000000      0.00000000      1.53000000      1.50100000 #  c2         c2        c1         cp   
10        0.24860000      0.24220000     -0.09250000      0.08140000      0.05910000      0.22190000      1.53000000      1.10100000 #  c2         c2        c1         hc   
11        0.00000000      0.00000000      0.00000000      0.00000000      0.00000000      0.00000000      1.53000000      1.50100000 #  c1         c2        c2         cp   
12        0.00000000      0.00000000      0.00000000      0.00000000      0.00000000      0.00000000      1.50100000      1.10100000 #  cp         c2        c2         hc   
13        0.21300000      0.31200000      0.07770000      0.21300000      0.31200000      0.07770000      1.10100000      1.10100000 #  hc         c2        c2         hc   
14        0.24860000      0.24220000     -0.09250000      0.08140000      0.05910000      0.22190000      1.53000000      1.10100000 #  c1         c2        c2         hc   
15        0.00000000      0.00000000      0.00000000      0.00000000      0.00000000      0.00000000      1.53000000      1.41700000 #  c2         c2        cp         cp   
16        1.39970000      0.77560000      0.00000000     -0.58350000      1.12200000      0.39780000      1.10100000      1.41700000 #  hc         c1        cp         cp   
17        1.39970000      0.77560000      0.00000000     -0.58350000      1.12200000      0.39780000      1.10100000      1.41700000 #  hc         c2        cp         cp   
18        0.00000000      0.24210000      0.00000000      0.00000000     -0.69180000      0.00000000      1.50100000      1.41700000 #  c1         cp        cp         cp   
19       -0.11850000      6.32040000      0.00000000     -0.11850000      6.32040000      0.00000000      1.41700000      1.41700000 #  cp         cp        cp         cp   
20        0.00000000     -6.89580000      0.00000000      0.00000000     -0.46690000      0.00000000      1.41700000      1.09820000 #  cp         cp        cp         hc   
21        0.00000000     -1.79700000      0.00000000      0.00000000     -0.48790000      0.00000000      1.50100000      1.09820000 #  c1         cp        cp         hc   
22       -0.24560000      1.05170000     -0.77950000      0.47410000      1.26350000      0.55760000      1.53000000      1.42000000 #  c1         c2        oc          c   
23       -0.60540000      1.33390000      0.96480000     -0.16200000      0.15640000     -1.14080000      1.10100000      1.42000000 #  hc         c2        oc          c   

MiddleBondTorsion Coeffs  # class2

1       -17.78700000     -7.18770000      0.00000000      1.53000000 #  c2         c1        c2         c2   
2       -14.26100000     -0.53220000     -0.48640000      1.53000000 #  hc         c1        c2         hc   
3       -14.87900000     -3.65810000     -0.31380000      1.53000000 #  c2         c1        c2         hc   
4         0.00000000      0.00000000      0.00000000      1.53000000 #  cp         c1        c2         hc   
5       -16.79750000     -1.22960000     -0.27500000      1.53000000 #  hc         c1        c2         oc   
6       -21.88420000     -7.67640000     -0.68680000      1.53000000 #  c2         c1        c2         oc   
7         0.00000000      0.00000000      0.00000000      1.53000000 #  cp         c1        c2         oc   
8         0.00000000      0.00000000      0.00000000      1.50100000 #  c2         c1        cp         cp   
9         0.00000000      0.00000000      0.00000000      1.53000000 #  c2         c2        c1         cp   
10      -14.87900000     -3.65810000     -0.31380000      1.53000000 #  c2         c2        c1         hc   
11        0.00000000      0.00000000      0.00000000      1.53000000 #  c1         c2        c2         cp   
12        0.00000000      0.00000000      0.00000000      1.53000000 #  cp         c2        c2         hc   
13      -14.26100000     -0.53220000     -0.48640000      1.53000000 #  hc         c2        c2         hc   
14      -14.87900000     -3.65810000     -0.31380000      1.53000000 #  c1         c2        c2         hc   
15        0.00000000      0.00000000      0.00000000      1.50100000 #  c2         c2        cp         cp   
16       -5.56790000      1.40830000      0.30100000      1.50100000 #  hc         c1        cp         cp   
17       -5.56790000      1.40830000      0.30100000      1.50100000 #  hc         c2        cp         cp   
18        0.00000000      9.17920000      0.00000000      1.41700000 #  c1         cp        cp         cp   
19       27.59890000     -2.31200000      0.00000000      1.41700000 #  cp         cp        cp         cp   
20        0.00000000     -1.15210000      0.00000000      1.41700000 #  cp         cp        cp         hc   
21        0.00000000      3.94210000      0.00000000      1.41700000 #  c1         cp        cp         hc   
22       -5.92880000     -2.70070000     -0.31750000      1.42000000 #  c1         c2        oc          c   
23       -6.80070000     -4.65460000     -1.41010000      1.42000000 #  hc         c2        oc          c   

BondBond13 Coeffs  # class2

1         0.00000000      1.53000000      1.53000000 #  c2         c1        c2         c2   
2         0.00000000      1.10100000      1.10100000 #  hc         c1        c2         hc   
3         0.00000000      1.53000000      1.10100000 #  c2         c1        c2         hc   
4         0.00000000      1.50100000      1.10100000 #  cp         c1        c2         hc   
5         0.00000000      1.10100000      1.42000000 #  hc         c1        c2         oc   
6         0.00000000      1.53000000      1.42000000 #  c2         c1        c2         oc   
7         0.00000000      1.50100000      1.42000000 #  cp         c1        c2         oc   
8         0.00000000      1.53000000      1.41700000 #  c2         c1        cp         cp   
9         0.00000000      1.53000000      1.50100000 #  c2         c2        c1         cp   
10        0.00000000      1.53000000      1.10100000 #  c2         c2        c1         hc   
11        0.00000000      1.53000000      1.50100000 #  c1         c2        c2         cp   
12        0.00000000      1.50100000      1.10100000 #  cp         c2        c2         hc   
13        0.00000000      1.10100000      1.10100000 #  hc         c2        c2         hc   
14        0.00000000      1.53000000      1.10100000 #  c1         c2        c2         hc   
15        0.00000000      1.53000000      1.41700000 #  c2         c2        cp         cp   
16       -3.48260000      1.10100000      1.41700000 #  hc         c1        cp         cp   
17       -3.48260000      1.10100000      1.41700000 #  hc         c2        cp         cp   
18        2.50850000      1.50100000      1.41700000 #  c1         cp        cp         cp   
19       53.00000000      1.41700000      1.41700000 #  cp         cp        cp         cp   
20       -6.27410000      1.41700000      1.09820000 #  cp         cp        cp         hc   
21        0.87430000      1.50100000      1.09820000 #  c1         cp        cp         hc   
22        0.00000000      1.53000000      1.42000000 #  c1         c2        oc          c   
23        0.00000000      1.10100000      1.42000000 #  hc         c2        oc          c   

AngleTorsion Coeffs  # class2

1         0.38860000     -0.31390000      0.13890000      0.38860000     -0.31390000      0.13890000    112.67000000    112.67000000 #  c2         c1        c2         c2   
2        -0.80850000      0.55690000     -0.24660000     -0.80850000      0.55690000     -0.24660000    110.77000000    110.77000000 #  hc         c1        c2         hc   
3        -0.24540000      0.00000000     -0.11360000      0.31130000      0.45160000     -0.19880000    112.67000000    110.77000000 #  c2         c1        c2         hc   
4         0.00000000      0.00000000      0.00000000      0.00000000      0.00000000      0.00000000    108.40000000    110.77000000 #  cp         c1        c2         hc   
5         2.36680000      2.49200000     -1.01220000     -0.18920000      0.49180000      0.72730000    110.77000000    111.27000000 #  hc         c1        c2         oc   
6         0.56230000     -0.30410000     -0.40150000      0.96720000     -0.75660000     -1.23310000    112.67000000    111.27000000 #  c2         c1        c2         oc   
7         0.00000000      0.00000000      0.00000000      0.00000000      0.00000000      0.00000000    108.40000000    111.27000000 #  cp         c1        c2         oc   
8         0.00000000      0.00000000      0.00000000      0.00000000      0.00000000      0.00000000    108.40000000    120.05000000 #  c2         c1        cp         cp   
9         0.00000000      0.00000000      0.00000000      0.00000000      0.00000000      0.00000000    112.67000000    108.40000000 #  c2         c2        c1         cp   
10       -0.24540000      0.00000000     -0.11360000      0.31130000      0.45160000     -0.19880000    112.67000000    110.77000000 #  c2         c2        c1         hc   
11        0.00000000      0.00000000      0.00000000      0.00000000      0.00000000      0.00000000    112.67000000    108.40000000 #  c1         c2        c2         cp   
12        0.00000000      0.00000000      0.00000000      0.00000000      0.00000000      0.00000000    108.40000000    110.77000000 #  cp         c2        c2         hc   
13       -0.80850000      0.55690000     -0.24660000     -0.80850000      0.55690000     -0.24660000    110.77000000    110.77000000 #  hc         c2        c2         hc   
14       -0.24540000      0.00000000     -0.11360000      0.31130000      0.45160000     -0.19880000    112.67000000    110.77000000 #  c1         c2        c2         hc   
15        0.00000000      0.00000000      0.00000000      0.00000000      0.00000000      0.00000000    108.40000000    120.05000000 #  c2         c2        cp         cp   
16        4.62660000      0.16320000      0.04610000      0.22510000      0.65480000      0.12370000    111.00000000    120.05000000 #  hc         c1        cp         cp   
17        4.62660000      0.16320000      0.04610000      0.22510000      0.65480000      0.12370000    111.00000000    120.05000000 #  hc         c2        cp         cp   
18        0.00000000     -4.46830000      0.00000000      0.00000000      3.89870000      0.00000000    120.05000000    118.90000000 #  c1         cp        cp         cp   
19        1.97670000      1.02390000      0.00000000      1.97670000      1.02390000      0.00000000    118.90000000    118.90000000 #  cp         cp        cp         cp   
20        0.00000000      2.50140000      0.00000000      0.00000000      2.71470000      0.00000000    118.90000000    117.94000000 #  cp         cp        cp         hc   
21        0.00000000     -0.12420000      0.00000000      0.00000000      3.46010000      0.00000000    120.05000000    117.94000000 #  c1         cp        cp         hc   
22       -2.74660000      1.48770000     -0.89550000      0.56760000      0.94500000      0.07030000    111.27000000    104.50000000 #  c1         c2        oc          c   
23       -1.82340000      1.63930000      0.51440000     -0.77770000      0.43400000     -0.66530000    108.72800000    104.50000000 #  hc         c2        oc          c   

AngleAngle Coeffs  # class2

1         0.00000000      0.00000000      0.00000000    120.05000000    118.90000000    120.05000000 #  c1         cp        cp        cp      nb==3   
2         0.00000000      0.00000000      0.00000000    120.05000000    118.90000000    120.05000000 #  c2         cp        cp        cp      nb==3   
3         0.00000000      0.00000000      0.00000000    118.90000000    117.94000000    117.94000000 #  cp         cp        cp        hc      nb==3   
4        -1.31990000     -1.31990000      0.11840000    112.67000000    110.77000000    110.77000000 #  c1         c2        c2        hc      nb!=3   
5         0.27380000     -0.48250000      0.27380000    110.77000000    110.77000000    107.66000000 #  c1         c2        hc        hc      nb!=3   
6         3.91770000      2.59260000      0.16890000    110.77000000    111.27000000    108.72800000 #  c1         c2        hc        oc      nb!=3   
7         0.00000000      0.00000000      0.00000000    112.67000000    108.40000000    108.40000000 #  c2         c1        c2        cp      nb!=3   
8        -1.31990000     -1.31990000      0.11840000    112.67000000    110.77000000    110.77000000 #  c2         c1        c2        hc      nb!=3   
9         2.04030000     -1.82020000      1.08270000    108.40000000    110.77000000    111.00000000 #  c2         c1        cp        hc      nb!=3   
10        2.04030000     -1.82020000      1.08270000    108.40000000    110.77000000    111.00000000 #  c2         c2        cp        hc      nb!=3   
11        0.27380000     -0.48250000      0.27380000    110.77000000    110.77000000    107.66000000 #  c2         c2        hc        hc      nb!=3   
12        2.37940000      3.01180000      2.37940000    111.00000000    111.00000000    107.66000000 #  cp         c2        hc        hc      nb!=3   
13        2.42590000      2.42590000      2.12830000    107.66000000    108.72800000    108.72800000 #  hc         c2        hc        oc      nb!=3   

Atoms # full

  1     1   4    0.000000   -4.865556000     1.389972000    -0.457804000      0    0    0 #  cp/C
  2     1   4    0.000000   -5.713956000     0.319772000    -0.174004000      0    0    0 #  cp/C
  3     1   4    0.000000   -7.096956000     0.494272000    -0.222604000      0    0    0 #  cp/C
  4     1   3   -0.106000   -5.140156000    -1.016128000     0.182696000      0    0    0 #  c2/C
  5     1   3   -0.106000   -3.619356000    -0.937528000     0.164096000      0    0    0 #  c2/C
  6     1   4    0.000000    2.629344000     3.181872000    -0.790304000      0    0    0 #  cp/C
  7     1   4   -0.126800    3.164044000     1.937272000    -0.457804000      0    0    0 #  cp/C
  8     1   4    0.000000    2.315644000     0.867072000    -0.174004000      0    0    0 #  cp/C
  9     1   4   -0.126800    0.932644000     1.041572000    -0.222604000      0    0    0 #  cp/C
  10    1   4    0.000000    0.397944000     2.286172000    -0.555004000      0    0    0 #  cp/C
  11    1   2   -0.053000    2.889444000    -0.468828000     0.182696000      0    0    0 #  c1/C
  12    1   3    0.027000    4.410344000    -0.390228000     0.164096000      0    0    0 #  c2/C
  13    1   7   -0.266000    4.947744000    -1.641328000     0.498196000      0    0    0 #  oc/O