HEADER,  r3_pre.mol  read w/ mol2lmp > atom_typing v1.10 / 10 May 2024 w/PCFF-IFF atom-types > all2lmp: v1.21 / 13 November 2024  Class: 2

27 atoms
25 bonds
42 angles
47 dihedrals
24 impropers

5 atom types
10 bond types
17 angle types
19 dihedral types
14 improper types

-7.945000000 6.667000000 xlo xhi
-2.857907407 4.113692593 ylo yhi
-1.395911111 2.002888889 zlo zhi

Masses

1   12.01115000  #  c1   
2   12.01115000  #  c2   
3   12.01115000  #  c3   
4   12.01115000  #  cp   
5    1.00797000  #  hc   

Pair Coeffs  # lj/class2/coul/long

1         0.05400000      4.01000000 #  c1   
2         0.05400000      4.01000000 #  c2   
3         0.05400000      3.90000000 #  c3   
4         0.06400000      4.01000000 #  cp   
5         0.02000000      2.30000000 #  hc   

Bond Coeffs  # class2

1         1.53000000    299.67000000   -501.77000000    679.81000000 #  c1          c2   
2         1.50100000    321.90210000   -521.82080000    572.16280000 #  c1          cp   
3         1.10100000    345.00000000   -691.89000000    844.60000000 #  c1          hc   
4         1.53000000    299.67000000   -501.77000000    679.81000000 #  c2          c2   
5         1.53000000    299.67000000   -501.77000000    679.81000000 #  c2          c3   
6         1.50100000    321.90210000   -521.82080000    572.16280000 #  c2          cp   
7         1.10100000    345.00000000   -691.89000000    844.60000000 #  c2          hc   
8         1.10100000    345.00000000   -691.89000000    844.60000000 #  c3          hc   
9         1.41700000    470.83610000   -627.61790000   1327.63450000 #  cp          cp   
10        1.09820000    372.82510000   -803.45260000    894.31730000 #  cp          hc   

Angle Coeffs  # class2

1       112.67000000     39.51600000     -7.44300000     -9.55830000 #  c1         c2         c2   
2       110.77000000     41.45300000    -10.60400000      5.12900000 #  c1         c2         hc   
3       112.67000000     39.51600000     -7.44300000     -9.55830000 #  c2         c1         c2   
4       108.40000000     43.95940000     -8.39240000     -9.33790000 #  c2         c1         cp   
5       110.77000000     41.45300000    -10.60400000      5.12900000 #  c2         c1         hc   
6       108.40000000     43.95940000     -8.39240000     -9.33790000 #  c2         c2         cp   
7       110.77000000     41.45300000    -10.60400000      5.12900000 #  c2         c2         hc   
8       110.77000000     41.45300000    -10.60400000      5.12900000 #  c2         c3         hc   
9       120.05000000     44.71480000    -22.73520000      0.00000000 #  c2         cp         cp   
10      108.40000000     43.95940000     -8.39240000     -9.33790000 #  c3         c2         cp   
11      110.77000000     41.45300000    -10.60400000      5.12900000 #  c3         c2         hc   
12      111.00000000     44.32340000     -9.44540000      0.00000000 #  cp         c1         hc   
13      111.00000000     44.32340000     -9.44540000      0.00000000 #  cp         c2         hc   
14      118.90000000     61.02260000    -34.99310000      0.00000000 #  cp         cp         cp   
15      117.94000000     35.15580000    -12.46820000      0.00000000 #  cp         cp         hc   
16      107.66000000     39.64100000    -12.92100000     -2.43180000 #  hc         c2         hc   
17      107.66000000     39.64100000    -12.92100000     -2.43180000 #  hc         c3         hc   

Dihedral Coeffs  # class2

1         0.00000000      0.00000000      0.05140000      0.00000000     -0.14300000      0.00000000 #  c2         c1        c2         c2   
2        -0.14320000      0.00000000      0.06170000      0.00000000     -0.10830000      0.00000000 #  hc         c1        c2         hc   
3         0.00000000      0.00000000      0.03160000      0.00000000     -0.16810000      0.00000000 #  c2         c1        c2         hc   
4        -0.02280000      0.00000000      0.02800000      0.00000000     -0.18630000      0.00000000 #  cp         c1        c2         hc   
5         0.00000000      0.00000000      0.00000000      0.00000000      0.15800000      0.00000000 #  c2         c2        c1         cp   
6         0.00000000      0.00000000      0.03160000      0.00000000     -0.16810000      0.00000000 #  c2         c2        c1         hc   
7         0.00000000      0.00000000      0.00000000      0.00000000      0.15800000      0.00000000 #  c1         c2        c2         cp   
8        -0.02280000      0.00000000      0.02800000      0.00000000     -0.18630000      0.00000000 #  cp         c2        c2         hc   
9        -0.14320000      0.00000000      0.06170000      0.00000000     -0.10830000      0.00000000 #  hc         c2        c2         hc   
10        0.00000000      0.00000000      0.03160000      0.00000000     -0.16810000      0.00000000 #  c1         c2        c2         hc   
11       -0.14320000      0.00000000      0.06170000      0.00000000     -0.10830000      0.00000000 #  hc         c2        c3         hc   
12       -0.02280000      0.00000000      0.02800000      0.00000000     -0.18630000      0.00000000 #  cp         c2        c3         hc   
13       -0.28020000      0.00000000     -0.06780000      0.00000000     -0.01220000      0.00000000 #  c3         c2        cp         cp   
14       -0.28020000      0.00000000     -0.06780000      0.00000000     -0.01220000      0.00000000 #  c2         c2        cp         cp   
15       -0.28010000      0.00000000     -0.06780000      0.00000000     -0.01220000      0.00000000 #  hc         c2        cp         cp   
16        0.00000000      0.00000000      4.40720000      0.00000000      0.00000000      0.00000000 #  c2         cp        cp         cp   
17        8.36670000      0.00000000      1.19320000      0.00000000      0.00000000      0.00000000 #  cp         cp        cp         cp   
18        0.00000000      0.00000000      3.96610000      0.00000000      0.00000000      0.00000000 #  cp         cp        cp         hc   
19        0.00000000      0.00000000      1.55900000      0.00000000      0.00000000      0.00000000 #  c2         cp        cp         hc   

Improper Coeffs  # class2

1         7.81530000      0.00000000 #  c2         cp        cp        cp      nb==3   
2         4.89120000      0.00000000 #  cp         cp        cp        hc      nb==3   
3         0.00000000      0.00000000 #  c1         c2        c2        hc      nb!=3   
4         0.00000000      0.00000000 #  c1         c2        hc        hc      nb!=3   
5         0.00000000      0.00000000 #  c2         c1        c2        cp      nb!=3   
6         0.00000000      0.00000000 #  c2         c1        c2        hc      nb!=3   
7         0.00000000      0.00000000 #  c2         c1        cp        hc      nb!=3   
8         0.00000000      0.00000000 #  c2         c2        cp        hc      nb!=3   
9         0.00000000      0.00000000 #  c2         c2        hc        hc      nb!=3   
10        0.00000000      0.00000000 #  c2         c3        hc        hc      nb!=3   
11        0.00000000      0.00000000 #  c3         c2        cp        hc      nb!=3   
12        0.00000000      0.00000000 #  c3         c2        hc        hc      nb!=3   
13        0.00000000      0.00000000 #  cp         c2        hc        hc      nb!=3   
14        0.00000000      0.00000000 #  hc         c3        hc        hc      nb!=3   

BondBond Coeffs  # class2

1         0.00000000      1.53000000      1.53000000 #  c1         c2         c2   
2         3.38720000      1.53000000      1.10100000 #  c1         c2         hc   
3         0.00000000      1.53000000      1.53000000 #  c2         c1         c2   
4         0.00000000      1.53000000      1.50100000 #  c2         c1         cp   
5         3.38720000      1.53000000      1.10100000 #  c2         c1         hc   
6         0.00000000      1.53000000      1.50100000 #  c2         c2         cp   
7         3.38720000      1.53000000      1.10100000 #  c2         c2         hc   
8         3.38720000      1.53000000      1.10100000 #  c2         c3         hc   
9        12.06760000      1.50100000      1.41700000 #  c2         cp         cp   
10        0.00000000      1.53000000      1.50100000 #  c3         c2         cp   
11        3.38720000      1.53000000      1.10100000 #  c3         c2         hc   
12        2.91680000      1.50100000      1.10100000 #  cp         c1         hc   
13        2.91680000      1.50100000      1.10100000 #  cp         c2         hc   
14       68.28560000      1.41700000      1.41700000 #  cp         cp         cp   
15        1.07950000      1.41700000      1.09820000 #  cp         cp         hc   
16        5.33160000      1.10100000      1.10100000 #  hc         c2         hc   
17        5.33160000      1.10100000      1.10100000 #  hc         c3         hc   

BondAngle Coeffs  # class2

1         8.01600000      8.01600000      1.53000000      1.53000000 #  c1         c2         c2   
2        20.75400000     11.42100000      1.53000000      1.10100000 #  c1         c2         hc   
3         8.01600000      8.01600000      1.53000000      1.53000000 #  c2         c1         c2   
4         0.00000000      0.00000000      1.53000000      1.50100000 #  c2         c1         cp   
5        20.75400000     11.42100000      1.53000000      1.10100000 #  c2         c1         hc   
6         0.00000000      0.00000000      1.53000000      1.50100000 #  c2         c2         cp   
7        20.75400000     11.42100000      1.53000000      1.10100000 #  c2         c2         hc   
8        20.75400000     11.42100000      1.53000000      1.10100000 #  c2         c3         hc   
9        47.05790000     31.07710000      1.50100000      1.41700000 #  c2         cp         cp   
10        0.00000000      0.00000000      1.53000000      1.50100000 #  c3         c2         cp   
11       20.75400000     11.42100000      1.53000000      1.10100000 #  c3         c2         hc   
12       26.46080000     11.77170000      1.50100000      1.10100000 #  cp         c1         hc   
13       26.46080000     11.77170000      1.50100000      1.10100000 #  cp         c2         hc   
14       28.87080000     28.87080000      1.41700000      1.41700000 #  cp         cp         cp   
15       20.00330000     24.21830000      1.41700000      1.09820000 #  cp         cp         hc   
16       18.10300000     18.10300000      1.10100000      1.10100000 #  hc         c2         hc   
17       18.10300000     18.10300000      1.10100000      1.10100000 #  hc         c3         hc   

AngleAngleTorsion Coeffs  # class2

1       -22.04500000    112.67000000    112.67000000 #  c2         c1        c2         c2   
2       -12.56400000    110.77000000    110.77000000 #  hc         c1        c2         hc   
3       -16.16400000    112.67000000    110.77000000 #  c2         c1        c2         hc   
4         0.00000000    108.40000000    110.77000000 #  cp         c1        c2         hc   
5         0.00000000    112.67000000    108.40000000 #  c2         c2        c1         cp   
6       -16.16400000    112.67000000    110.77000000 #  c2         c2        c1         hc   
7         0.00000000    112.67000000    108.40000000 #  c1         c2        c2         cp   
8         0.00000000    108.40000000    110.77000000 #  cp         c2        c2         hc   
9       -12.56400000    110.77000000    110.77000000 #  hc         c2        c2         hc   
10      -16.16400000    112.67000000    110.77000000 #  c1         c2        c2         hc   
11      -12.56400000    110.77000000    110.77000000 #  hc         c2        c3         hc   
12        0.00000000    108.40000000    110.77000000 #  cp         c2        c3         hc   
13        0.00000000    108.40000000    120.05000000 #  c3         c2        cp         cp   
14        0.00000000    108.40000000    120.05000000 #  c2         c2        cp         cp   
15       -5.88880000    111.00000000    120.05000000 #  hc         c2        cp         cp   
16      -14.40970000    120.05000000    118.90000000 #  c2         cp        cp         cp   
17        0.00000000    118.90000000    118.90000000 #  cp         cp        cp         cp   
18       -4.81410000    118.90000000    117.94000000 #  cp         cp        cp         hc   
19        4.44440000    120.05000000    117.94000000 #  c2         cp        cp         hc   

EndBondTorsion Coeffs  # class2

1        -0.07320000      0.00000000      0.00000000     -0.07320000      0.00000000      0.00000000      1.53000000      1.53000000 #  c2         c1        c2         c2   
2         0.21300000      0.31200000      0.07770000      0.21300000      0.31200000      0.07770000      1.10100000      1.10100000 #  hc         c1        c2         hc   
3         0.24860000      0.24220000     -0.09250000      0.08140000      0.05910000      0.22190000      1.53000000      1.10100000 #  c2         c1        c2         hc   
4         0.00000000      0.00000000      0.00000000      0.00000000      0.00000000      0.00000000      1.50100000      1.10100000 #  cp         c1        c2         hc   
5         0.00000000      0.00000000      0.00000000      0.00000000      0.00000000      0.00000000      1.53000000      1.50100000 #  c2         c2        c1         cp   
6         0.24860000      0.24220000     -0.09250000      0.08140000      0.05910000      0.22190000      1.53000000      1.10100000 #  c2         c2        c1         hc   
7         0.00000000      0.00000000      0.00000000      0.00000000      0.00000000      0.00000000      1.53000000      1.50100000 #  c1         c2        c2         cp   
8         0.00000000      0.00000000      0.00000000      0.00000000      0.00000000      0.00000000      1.50100000      1.10100000 #  cp         c2        c2         hc   
9         0.21300000      0.31200000      0.07770000      0.21300000      0.31200000      0.07770000      1.10100000      1.10100000 #  hc         c2        c2         hc   
10        0.24860000      0.24220000     -0.09250000      0.08140000      0.05910000      0.22190000      1.53000000      1.10100000 #  c1         c2        c2         hc   
11        0.21300000      0.31200000      0.07770000      0.21300000      0.31200000      0.07770000      1.10100000      1.10100000 #  hc         c2        c3         hc   
12        0.00000000      0.00000000      0.00000000      0.00000000      0.00000000      0.00000000      1.50100000      1.10100000 #  cp         c2        c3         hc   
13        0.00000000      0.00000000      0.00000000      0.00000000      0.00000000      0.00000000      1.53000000      1.41700000 #  c3         c2        cp         cp   
14        0.00000000      0.00000000      0.00000000      0.00000000      0.00000000      0.00000000      1.53000000      1.41700000 #  c2         c2        cp         cp   
15        1.39970000      0.77560000      0.00000000     -0.58350000      1.12200000      0.39780000      1.10100000      1.41700000 #  hc         c2        cp         cp   
16        0.00000000      0.24210000      0.00000000      0.00000000     -0.69180000      0.00000000      1.50100000      1.41700000 #  c2         cp        cp         cp   
17       -0.11850000      6.32040000      0.00000000     -0.11850000      6.32040000      0.00000000      1.41700000      1.41700000 #  cp         cp        cp         cp   
18        0.00000000     -6.89580000      0.00000000      0.00000000     -0.46690000      0.00000000      1.41700000      1.09820000 #  cp         cp        cp         hc   
19        0.00000000     -1.79700000      0.00000000      0.00000000     -0.48790000      0.00000000      1.50100000      1.09820000 #  c2         cp        cp         hc   

MiddleBondTorsion Coeffs  # class2

1       -17.78700000     -7.18770000      0.00000000      1.53000000 #  c2         c1        c2         c2   
2       -14.26100000     -0.53220000     -0.48640000      1.53000000 #  hc         c1        c2         hc   
3       -14.87900000     -3.65810000     -0.31380000      1.53000000 #  c2         c1        c2         hc   
4         0.00000000      0.00000000      0.00000000      1.53000000 #  cp         c1        c2         hc   
5         0.00000000      0.00000000      0.00000000      1.53000000 #  c2         c2        c1         cp   
6       -14.87900000     -3.65810000     -0.31380000      1.53000000 #  c2         c2        c1         hc   
7         0.00000000      0.00000000      0.00000000      1.53000000 #  c1         c2        c2         cp   
8         0.00000000      0.00000000      0.00000000      1.53000000 #  cp         c2        c2         hc   
9       -14.26100000     -0.53220000     -0.48640000      1.53000000 #  hc         c2        c2         hc   
10      -14.87900000     -3.65810000     -0.31380000      1.53000000 #  c1         c2        c2         hc   
11      -14.26100000     -0.53220000     -0.48640000      1.53000000 #  hc         c2        c3         hc   
12        0.00000000      0.00000000      0.00000000      1.53000000 #  cp         c2        c3         hc   
13        0.00000000      0.00000000      0.00000000      1.50100000 #  c3         c2        cp         cp   
14        0.00000000      0.00000000      0.00000000      1.50100000 #  c2         c2        cp         cp   
15       -5.56790000      1.40830000      0.30100000      1.50100000 #  hc         c2        cp         cp   
16        0.00000000      9.17920000      0.00000000      1.41700000 #  c2         cp        cp         cp   
17       27.59890000     -2.31200000      0.00000000      1.41700000 #  cp         cp        cp         cp   
18        0.00000000     -1.15210000      0.00000000      1.41700000 #  cp         cp        cp         hc   
19        0.00000000      3.94210000      0.00000000      1.41700000 #  c2         cp        cp         hc   

BondBond13 Coeffs  # class2

1         0.00000000      1.53000000      1.53000000 #  c2         c1        c2         c2   
2         0.00000000      1.10100000      1.10100000 #  hc         c1        c2         hc   
3         0.00000000      1.53000000      1.10100000 #  c2         c1        c2         hc   
4         0.00000000      1.50100000      1.10100000 #  cp         c1        c2         hc   
5         0.00000000      1.53000000      1.50100000 #  c2         c2        c1         cp   
6         0.00000000      1.53000000      1.10100000 #  c2         c2        c1         hc   
7         0.00000000      1.53000000      1.50100000 #  c1         c2        c2         cp   
8         0.00000000      1.50100000      1.10100000 #  cp         c2        c2         hc   
9         0.00000000      1.10100000      1.10100000 #  hc         c2        c2         hc   
10        0.00000000      1.53000000      1.10100000 #  c1         c2        c2         hc   
11        0.00000000      1.10100000      1.10100000 #  hc         c2        c3         hc   
12        0.00000000      1.50100000      1.10100000 #  cp         c2        c3         hc   
13        0.00000000      1.53000000      1.41700000 #  c3         c2        cp         cp   
14        0.00000000      1.53000000      1.41700000 #  c2         c2        cp         cp   
15       -3.48260000      1.10100000      1.41700000 #  hc         c2        cp         cp   
16        2.50850000      1.50100000      1.41700000 #  c2         cp        cp         cp   
17       53.00000000      1.41700000      1.41700000 #  cp         cp        cp         cp   
18       -6.27410000      1.41700000      1.09820000 #  cp         cp        cp         hc   
19        0.87430000      1.50100000      1.09820000 #  c2         cp        cp         hc   

AngleTorsion Coeffs  # class2

1         0.38860000     -0.31390000      0.13890000      0.38860000     -0.31390000      0.13890000    112.67000000    112.67000000 #  c2         c1        c2         c2   
2        -0.80850000      0.55690000     -0.24660000     -0.80850000      0.55690000     -0.24660000    110.77000000    110.77000000 #  hc         c1        c2         hc   
3        -0.24540000      0.00000000     -0.11360000      0.31130000      0.45160000     -0.19880000    112.67000000    110.77000000 #  c2         c1        c2         hc   
4         0.00000000      0.00000000      0.00000000      0.00000000      0.00000000      0.00000000    108.40000000    110.77000000 #  cp         c1        c2         hc   
5         0.00000000      0.00000000      0.00000000      0.00000000      0.00000000      0.00000000    112.67000000    108.40000000 #  c2         c2        c1         cp   
6        -0.24540000      0.00000000     -0.11360000      0.31130000      0.45160000     -0.19880000    112.67000000    110.77000000 #  c2         c2        c1         hc   
7         0.00000000      0.00000000      0.00000000      0.00000000      0.00000000      0.00000000    112.67000000    108.40000000 #  c1         c2        c2         cp   
8         0.00000000      0.00000000      0.00000000      0.00000000      0.00000000      0.00000000    108.40000000    110.77000000 #  cp         c2        c2         hc   
9        -0.80850000      0.55690000     -0.24660000     -0.80850000      0.55690000     -0.24660000    110.77000000    110.77000000 #  hc         c2        c2         hc   
10       -0.24540000      0.00000000     -0.11360000      0.31130000      0.45160000     -0.19880000    112.67000000    110.77000000 #  c1         c2        c2         hc   
11       -0.80850000      0.55690000     -0.24660000     -0.80850000      0.55690000     -0.24660000    110.77000000    110.77000000 #  hc         c2        c3         hc   
12        0.00000000      0.00000000      0.00000000      0.00000000      0.00000000      0.00000000    108.40000000    110.77000000 #  cp         c2        c3         hc   
13        0.00000000      0.00000000      0.00000000      0.00000000      0.00000000      0.00000000    108.40000000    120.05000000 #  c3         c2        cp         cp   
14        0.00000000      0.00000000      0.00000000      0.00000000      0.00000000      0.00000000    108.40000000    120.05000000 #  c2         c2        cp         cp   
15        4.62660000      0.16320000      0.04610000      0.22510000      0.65480000      0.12370000    111.00000000    120.05000000 #  hc         c2        cp         cp   
16        0.00000000     -4.46830000      0.00000000      0.00000000      3.89870000      0.00000000    120.05000000    118.90000000 #  c2         cp        cp         cp   
17        1.97670000      1.02390000      0.00000000      1.97670000      1.02390000      0.00000000    118.90000000    118.90000000 #  cp         cp        cp         cp   
18        0.00000000      2.50140000      0.00000000      0.00000000      2.71470000      0.00000000    118.90000000    117.94000000 #  cp         cp        cp         hc   
19        0.00000000     -0.12420000      0.00000000      0.00000000      3.46010000      0.00000000    120.05000000    117.94000000 #  c2         cp        cp         hc   

AngleAngle Coeffs  # class2

1         0.00000000      0.00000000      0.00000000    120.05000000    118.90000000    120.05000000 #  c2         cp        cp        cp      nb==3   
2         0.00000000      0.00000000      0.00000000    118.90000000    117.94000000    117.94000000 #  cp         cp        cp        hc      nb==3   
3        -1.31990000     -1.31990000      0.11840000    112.67000000    110.77000000    110.77000000 #  c1         c2        c2        hc      nb!=3   
4         0.27380000     -0.48250000      0.27380000    110.77000000    110.77000000    107.66000000 #  c1         c2        hc        hc      nb!=3   
5         0.00000000      0.00000000      0.00000000    112.67000000    108.40000000    108.40000000 #  c2         c1        c2        cp      nb!=3   
6        -1.31990000     -1.31990000      0.11840000    112.67000000    110.77000000    110.77000000 #  c2         c1        c2        hc      nb!=3   
7         2.04030000     -1.82020000      1.08270000    108.40000000    110.77000000    111.00000000 #  c2         c1        cp        hc      nb!=3   
8         2.04030000     -1.82020000      1.08270000    108.40000000    110.77000000    111.00000000 #  c2         c2        cp        hc      nb!=3   
9         0.27380000     -0.48250000      0.27380000    110.77000000    110.77000000    107.66000000 #  c2         c2        hc        hc      nb!=3   
10        0.27380000     -0.48250000      0.27380000    110.77000000    110.77000000    107.66000000 #  c2         c3        hc        hc      nb!=3   
11        2.04030000     -1.82020000      1.08270000    108.40000000    110.77000000    111.00000000 #  c3         c2        cp        hc      nb!=3   
12        0.27380000     -0.48250000      0.27380000    110.77000000    110.77000000    107.66000000 #  c3         c2        hc        hc      nb!=3   
13        2.37940000      3.01180000      2.37940000    111.00000000    111.00000000    107.66000000 #  cp         c2        hc        hc      nb!=3   
14       -0.31570000     -0.31570000     -0.31570000    107.66000000    107.66000000    107.66000000 #  hc         c3        hc        hc      nb!=3   

Atoms # full

  1     2   4    0.000000   -5.213600000     1.166192593    -0.499911111      0    0    0 #  cp/C
  2     2   4    0.000000   -6.062000000     0.095992593    -0.216111111      0    0    0 #  cp/C
  3     2   4    0.000000   -7.445000000     0.270492593    -0.264711111      0    0    0 #  cp/C
  4     2   2   -0.106000   -5.488200000    -1.239907407     0.140588889      0    0    0 #  c2/C
  5     2   3   -0.159000   -3.967300000    -1.161307407     0.121988889      0    0    0 #  c3/C
  6     2   5    0.053000   -5.831700000    -1.530707407     1.158588889      0    0    0 #  hc/H
  7     2   5    0.053000   -5.829300000    -1.999207407    -0.598111111      0    0    0 #  hc/H
  8     2   5    0.053000   -3.540700000    -2.154507407     0.387288889      0    0    0 #  hc/H
  9     2   5    0.053000   -3.623800000    -0.870407407    -0.895911111      0    0    0 #  hc/H
  10    2   5    0.053000   -3.626200000    -0.401907407     0.860788889      0    0    0 #  hc/H
  11    1   4    0.000000    2.281400000     3.613692593    -0.832411111      0    0    0 #  cp/C
  12    1   4   -0.126800    2.816100000     2.369092593    -0.499911111      0    0    0 #  cp/C
  13    1   4    0.000000    1.967700000     1.298892593    -0.216111111      0    0    0 #  cp/C
  14    1   4   -0.126800    0.584700000     1.473392593    -0.264711111      0    0    0 #  cp/C
  15    1   4    0.000000    0.050000000     2.717992593    -0.597111111      0    0    0 #  cp/C
  16    1   2   -0.106000    2.541500000    -0.037007407     0.140588889      0    0    0 #  c2/C
  17    1   2   -0.106000    4.062400000     0.041592593     0.121988889      0    0    0 #  c2/C
  18    1   1   -0.053000    4.646100000    -1.317407407     0.484988889      0    0    0 #  c1/C
  19    1   2    0.000000    6.167000000    -1.238907407     0.466388889      0    0    0 #  c2/C
  20    1   5    0.126800    3.906800000     2.231492593    -0.461511111      0    0    0 #  hc/H
  21    1   5    0.126800   -0.084300000     0.629392593    -0.040911111      0    0    0 #  hc/H
  22    1   5    0.053000    2.198000000    -0.327807407     1.158588889      0    0    0 #  hc/H
  23    1   5    0.053000    2.200300000    -0.796407407    -0.598111111      0    0    0 #  hc/H
  24    1   5    0.053000    4.405800000     0.332492593    -0.895911111      0    0    0 #  hc/H
  25    1   5    0.053000    4.403500000     0.800992593     0.860788889      0    0    0 #  hc/H
  26    1   5    0.053000    4.302600000    -1.608307407     1.502888889      0    0    0 #  hc/H
  27    1   4    0.000000    4.178200000    -2.357907407    -0.524011111      0    0    0 #  cp/C

Bonds

  1   9     1     2  
  2   9     2     3  
  3   6     4     2  
  4   5     4     5  
  5   7     4     6  
  6   7     4     7  
  7   8     5     8  
  8   8     5     9  
  9   8     5    10  
 10   9    11    12  
 11   9    12    13  
 12   10   12    20  
 13   9    13    14  
 14   6    16    13  
 15   9    14    15  
 16   10   14    21  
 17   4    16    17  
 18   7    16    22  
 19   7    16    23  
 20   1    18    17  
 21   7    17    24  
 22   7    17    25  
 23   1    18    19  
 24   3    18    26  
 25   2    18    27  

Angles

  1   9     4     2     3  
  2   9     4     2     1  
  3   14    1     2     3  
  4   10    5     4     2  
  5   11    5     4     7  
  6   13    2     4     7  
  7   11    5     4     6  
  8   13    2     4     6  
  9   16    6     4     7  
 10   8     4     5     9  
 11   17    8     5    10  
 12   17    9     5    10  
 13   8     4     5     8  
 14   17    8     5     9  
 15   8     4     5    10  
 16   14   11    12    13  
 17   15   13    12    20  
 18   15   11    12    20  
 19   9    16    13    12  
 20   9    16    13    14  
 21   14   12    13    14  
 22   15   15    14    21  
 23   15   13    14    21  
 24   14   13    14    15  
 25   16   22    16    23  
 26   7    17    16    23  
 27   6    17    16    13  
 28   13   13    16    23  
 29   7    17    16    22  
 30   13   13    16    22  
 31   7    16    17    25  
 32   2    18    17    25  
 33   1    18    17    16  
 34   16   24    17    25  
 35   7    16    17    24  
 36   2    18    17    24  
 37   4    19    18    27  
 38   5    17    18    26  
 39   5    19    18    26  
 40   3    17    18    19  
 41   12   27    18    26  
 42   4    17    18    27  

Dihedrals
